59
	Energy:      58.0028319
C         -4.32686       -0.80149        0.14706
C         -5.57736       -1.41866        0.08613
C         -5.68451       -2.73139       -0.37144
C         -3.17870       -1.49282       -0.25993
C         -3.28922       -2.81729       -0.70335
C         -4.54281       -3.43169       -0.76139
H         -6.65866       -3.21282       -0.41383
H         -4.62918       -4.46132       -1.10026
H         -4.24759        0.22109        0.51123
H         -6.46553       -0.87611        0.40043
C         -1.86699       -0.79404       -0.17295
H         -2.41144       -3.39457       -0.97693
N         -0.90127       -1.18264       -1.07836
C          0.41449       -0.57000       -1.08795
C          1.31603       -1.12603        0.01623
H          0.29535        0.51495       -0.98378
H          0.84971       -0.76258       -2.07505
C          2.69052       -0.50701       -0.01779
H          1.39884       -2.21623       -0.08289
H          0.86741       -0.95733        1.00343
H         -1.12791       -1.84028       -1.81085
O         -1.69399        0.09292        0.65546
C          2.93197        0.71208        0.62793
C          4.20102        1.30029        0.59272
C          5.24379        0.67630       -0.09104
C          5.00168       -0.53262       -0.74700
C          3.73605       -1.12283       -0.71318
H          2.12883        1.21292        1.16661
H          4.33657        2.24532        1.10780
O          6.52665        1.13842       -0.19910
H          5.80911       -1.02233       -1.28580
H          3.57779       -2.06644       -1.22953
C          6.85996        2.30732        0.55500
C          8.35426        2.56943        0.35806
H          6.64912        2.13133        1.61545
H          6.27791        3.16013        0.18781
C          8.86684        3.84536        1.05060
H          8.54187        2.63411       -0.72325
H          8.91669        1.69058        0.70170
C         10.33992        4.03139        0.76243
C          8.65943        3.80714        2.56693
O          8.14093        4.96890        0.55027
C         10.93079        5.15873        0.32916
C         12.40040        5.18643        0.09010
C         13.05350        6.51758       -0.14340
C         14.36513        6.45279       -0.87200
H         15.10056        5.88368       -0.29379
H         14.78406        7.44902       -1.05027
H         14.23699        5.97053       -1.84683
C         12.54410        7.67937        0.29946
H         11.62693        7.74922        0.87379
H         13.06463        8.61686        0.12305
O         13.05884        4.15092        0.03981
H         10.96544        3.15788        0.95384
H         10.35936        6.05852        0.14480
H          8.21231        4.94873       -0.42028
H          9.11477        2.91876        3.01778
H          7.59536        3.82599        2.82642
H          9.09513        4.69355        3.04470
