59
 energy: -87.427256118852 gnorm: 0.000411461391 xtb: 6.7.1 (edcfbbe)
C           -4.09525692958340       -0.78681427892849       -1.54719560361548
C           -5.37135445899148       -1.31800667395252       -1.51585747016795
C           -5.64819114740707       -2.40488038395329       -0.70196371161893
C           -3.07929920009574       -1.34596766777549       -0.77676862326780
C           -3.36688111160022       -2.42965148640884        0.04913687844105
C           -4.64758202800933       -2.95242918304301        0.08492551172729
H           -6.64486481267033       -2.81910441124211       -0.67438392347914
H           -4.86728556569483       -3.78883499235333        0.73128963262384
H           -3.86257288548255        0.06579212007713       -2.16869518197804
H           -6.15047880867456       -0.88297042154424       -2.12363182323324
C           -1.72474781914904       -0.72821485456170       -0.85051196471908
H           -2.60779288405672       -2.84972437125239        0.69200435373962
N           -0.69205286672530       -1.58025859095960       -0.70100891429002
C            0.68424102580022       -1.15250071004682       -0.72944237287350
C            1.28633518701943       -1.07941093928180        0.68911368805111
H            0.69822064581034       -0.16061702024949       -1.18741458832069
H            1.26287462047386       -1.84443232147769       -1.34527130686203
C            2.68684303703562       -0.56142210832855        0.62105178422894
H            1.26696984871730       -2.07137060157162        1.14034755947101
H            0.66691274968404       -0.40725816061358        1.28500746188153
H           -0.88092720031086       -2.55644163057134       -0.53896676977030
O           -1.56435554474152        0.47023168283024       -1.06192029280481
C            2.91508073519069        0.80189182502005        0.43105892678139
C            4.19504057970336        1.30229270727465        0.31695643798785
C            5.27259805515370        0.42119901946984        0.40049824528204
C            5.06633321408077       -0.94168998730552        0.61516350004956
C            3.77743517761111       -1.42376016173695        0.71171474591526
H            2.07434443820042        1.47624269096113        0.38112163168908
H            4.34565944970789        2.36415044559701        0.20508950031647
O            6.59206217230092        0.81425165008877        0.30982407533738
H            5.91832406946551       -1.59851358910342        0.68279860860218
H            3.61453011035722       -2.47836497092505        0.86678604699583
C            7.00928166173411        1.87529239467229       -0.22574325019214
C            8.42135963005681        2.21340512228415       -0.18601059994156
H            6.99638625657215        3.48437998209028        1.93362725689906
H            6.32823801124391        2.58914208297633       -0.68984552854649
C            8.59845659948478        3.64037729482266        0.49617005978144
H            8.80022180459452        2.32474224011166       -1.20461771075057
H            9.00284022604018        1.46689911137466        0.35036194703275
C           10.07219867408523        3.93450248213671        0.52202027764495
C            8.07945206916026        3.56951371655481        1.93707550603921
O            7.83598691748955        4.58008686690813       -0.19535456894931
C           10.64223949776485        5.06729292286358        0.11534969058782
C           12.10703179532794        5.23824899241398        0.19281966023173
C           12.65737529733327        6.58157517109201       -0.11606681586903
C           14.07898434660369        6.58549926557456       -0.58851918521140
H           14.69325152364439        6.05269599594082        0.13634589434681
H           14.45085607301581        7.59879390341744       -0.70250013437474
H           14.16073095082389        6.05704718584380       -1.53740355052997
C           11.96342325599637        7.69895299726731        0.09076303654706
H           10.96450645852202        7.70647189560170        0.48978150436861
H           12.40998003667294        8.66427523685081       -0.07934372678267
O           12.84129561718612        4.30028077255898        0.47170523310022
H           10.70509914619592        3.16367804926801        0.93924566661630
H           10.07426868766029        5.89421611387496       -0.27895859443373
H            8.30811491194050        4.88265451872912       -0.98296431088374
H            8.51985389288342        2.73416353634151        2.47109650010110
H            8.34672611653704        4.48420288672847        2.46108914743883
H           11.64967868727151        6.39819663715996        4.78302055316947
