33
	Energy:      53.9612043
C          0.89784        1.49311       -0.05713
C          0.06838        2.61000       -0.11432
C         -1.29517        2.42588       -0.29456
C         -1.83344        1.14603       -0.40740
C         -0.99333        0.02908       -0.33012
C          0.39171        0.18340       -0.17214
O         -1.62540       -1.18475       -0.44936
C         -0.86707       -2.28647        0.09805
C          0.58853       -2.32878       -0.41722
C          1.28087       -0.99996       -0.15372
O          2.53066       -1.03366        0.04175
O          2.24478        1.71047        0.10845
H          0.49102        3.60393       -0.02519
O         -2.09323        3.53319       -0.35641
H         -2.89762        0.99105       -0.54517
H         -0.88023       -2.18414        1.19335
C         -1.63205       -3.56138       -0.25636
C         -1.77259       -4.58542        0.69390
C         -2.46378       -5.75758        0.38030
C         -3.00931       -5.91597       -0.88722
C         -2.87358       -4.92182       -1.85097
C         -2.18351       -3.74925       -1.53532
H         -1.32378       -4.47593        1.67906
H         -2.56201       -6.54523        1.12040
O         -3.67441       -7.07689       -1.15767
H         -3.28888       -5.03634       -2.84604
H         -2.07024       -2.97367       -2.29035
H          0.61453       -2.53297       -1.49583
O          1.33600       -3.36434        0.24616
H         -3.00740        3.23180       -0.47896
H          2.61933        0.78445        0.11772
H          2.18777       -2.88596        0.39353
H         -3.93139       -7.05876       -2.09328
