59
 energy: -87.427262802696 gnorm: 0.000699872728 xtb: 6.7.1 (edcfbbe)
C           -4.06286825668413       -0.77664537356085       -1.65380856584476
C           -5.34688940606439       -1.28921709896462       -1.64089404456013
C           -5.65044667561346       -2.37389586865412       -0.83335068421409
C           -3.06550290939589       -1.35166982944793       -0.87070436074720
C           -3.38026923718176       -2.43267776923446       -0.05098375855224
C           -4.66864066432481       -2.93724735353567       -0.03404322429365
H           -6.65335391015730       -2.77355330313176       -0.82021921921123
H           -4.90920821284257       -3.77188570637883        0.60717554371709
H           -3.81017768873956        0.07457995511383       -2.26926505046031
H           -6.11149314391329       -0.84104269427527       -2.25753992823276
C           -1.70255068577478       -0.75050303973865       -0.92101168808809
H           -2.63664180236046       -2.86486252949748        0.60183325862889
N           -0.68177092946034       -1.61312885761256       -0.75138480801773
C            0.69812276880554       -1.19615846397402       -0.74453685317212
C            1.25345185969041       -1.09753295454462        0.69172587704727
H            0.73464107195292       -0.21365814137566       -1.22109459915794
H            1.29016571770545       -1.90491258464591       -1.32716868189946
C            2.65454766066534       -0.57752948566348        0.66254894811601
H            1.22047945009927       -2.08166626453347        1.15902781368794
H            0.61257400562337       -0.41677357020173        1.25442712983936
H           -0.88333626236666       -2.58638834181025       -0.58682980026448
O           -1.52486735694156        0.44571278972825       -1.13221745569174
C            2.88687129445844        0.78580480795422        0.47668518685114
C            4.16893239023763        1.28844340455762        0.40162121454259
C            5.24501746687795        0.40919082711366        0.51847673309011
C            5.03396616961603       -0.95397991500047        0.72855533258007
C            3.74343491218932       -1.43794844544746        0.78743598683215
H            2.04695795172838        1.45859758803817        0.39899573995862
H            4.31950992829119        2.35036830371390        0.29073830683845
O            6.56761009436883        0.79919231367123        0.45933724075886
H            5.88446603375235       -1.60956713832689        0.82200862782916
H            3.57778034320361       -2.49267582329016        0.93894883943033
C            6.99943626277585        1.86906736091615       -0.04467902675369
C            8.41683415516625        2.18864083781885       -0.00427527061424
H            7.07032063179106        3.50753945567782        2.08995033411595
H            6.33109031352413        2.60352212941795       -0.49516104176239
C            8.61909853818051        3.64564338945918        0.58989647065883
H            8.80059170502901        2.23078095941676       -1.02763727480942
H            8.98400361175588        1.45896668398794        0.56965508239442
C           10.09278578590706        3.94171334809012        0.55295303954596
C            8.14575849130743        3.65593859486060        2.04818491541660
O            7.83554769398909        4.54989908895127       -0.12902088689610
C           10.64251695248242        5.06362034544566        0.09217932360429
C           12.10829473422480        5.24029091019601        0.10110952623772
C           12.63698149316597        6.59342401701875       -0.20150066219033
C           14.04105701667968        6.61929319464800       -0.72351315241783
H           14.69505978961531        6.13362843169089       -0.00008408994470
H           14.37828836699036        7.63763513401494       -0.88777518372280
H           14.10773726817185        6.05563768213141       -1.65262751694680
C           11.94252122969769        7.70035115634281        0.05433384470417
H           10.95891558031994        7.69014246164632        0.48979604364627
H           12.37415880905032        8.67301603535495       -0.11258735818563
O           12.85927402065438        4.30031758802707        0.32315875570262
H           10.74267044683177        3.18247334066357        0.96515780175173
H           10.05437528095546        5.87904076402397       -0.29709028822605
H            8.28978878115059        4.81449543972855       -0.94035564820580
H            8.65191975575371        2.89102292266972        2.62784459127512
H            8.37523506395185        4.62157760736959        2.49265955762307
H           11.83322624287789        6.32555168316993        4.72893905661981
