59
 energy: -87.422834410059 gnorm: 0.000504005606 xtb: 6.7.1 (edcfbbe)
C           -4.10466364481058       -0.26489459377660       -0.28043065540781
C           -5.41516392004436       -0.70235822839233       -0.23345467417086
C           -5.68903407289861       -2.06007024891006       -0.18632262774078
C           -3.05391293903871       -1.17866152653980       -0.29518648981673
C           -3.33554482216675       -2.54111769717366       -0.23066995012347
C           -4.64843237047920       -2.97509488091531       -0.17578101770910
H           -6.71181424878998       -2.40382877365496       -0.14770783698940
H           -4.86194954105850       -4.03204891966853       -0.12145977444847
H           -3.87109230889809        0.78949716228091       -0.31008707807178
H           -6.22195414942443        0.01515813982101       -0.22989094061109
C           -1.66668023348508       -0.63792875786266       -0.35491977668908
H           -2.53963410802575       -3.26962561433132       -0.19047573678944
N           -0.75834835686680       -1.41803128572702       -0.97277850112238
C            0.62458963138783       -1.02771210444527       -1.10072380215743
C            1.47356956417476       -1.54399268174692        0.08002093791480
H            0.64942802880244        0.06489206217950       -1.11115495194556
H            1.01537444891909       -1.40998657986754       -2.04449438227890
C            2.85476150595114       -0.97667374252913        0.01395209572949
H            1.50194933255842       -2.63318539802429        0.06039679665924
H            0.98566345339324       -1.21951666400201        1.00131233117710
H           -1.03836218411823       -2.31672062316571       -1.32965315092726
O           -1.37612554276688        0.46356574327720        0.10326212139985
C            3.06185091899077        0.37005208393302        0.31704834368503
C            4.31501264037899        0.93762126728025        0.22615230259158
C            5.38881847836801        0.13908476384792       -0.16590461021676
C            5.20880231848214       -1.21598911487153       -0.44275043794389
C            3.94314609190976       -1.76000269933733       -0.36367968751946
H            2.22601491151881        0.97313686683794        0.63667206857480
H            4.45374168914210        1.97234197083846        0.49668019292615
O            6.68281996120392        0.60539089445658       -0.28254436063192
H            6.05840926654562       -1.81171709162154       -0.73436375586475
H            3.79819343850678       -2.80425895102054       -0.59058981582476
C            7.01268119261469        1.80692351957136       -0.46305176010322
C            8.41280300020560        2.19491446482411       -0.50876131935296
H            7.34652275653163        2.71645006486200        2.05334822880345
H            6.26829807409125        2.59873948672399       -0.55444258686191
C            8.66019888656534        3.40592015614982        0.48407349154312
H            8.64075844643802        2.57757131984433       -1.50782617344336
H            9.07424534749466        1.36287827595146       -0.27647595444865
C           10.10464112699267        3.80264890414592        0.36459344538631
C            8.40324204044558        2.93015249916590        1.92004552026489
O            7.75777175708293        4.43274169319439        0.19889690572134
C           10.55596472207753        5.05136284198891        0.25670747264885
C           12.00703126318747        5.31437381029450        0.17660659130259
C           12.45572620492203        6.72844742636958        0.22966625690983
C           13.80234594554208        6.98465118087210       -0.37531960082431
H           14.52191047997879        6.28023404673559        0.03922258416076
H           14.13181149320938        7.99968674157248       -0.17605905544610
H           13.76650574251106        6.82064787784121       -1.45160608684249
C           11.74914731085296        7.67691070466884        0.84255594947476
H           10.80746440232222        7.49687533215261        1.33049615060251
H           12.12498582184112        8.68265133611375        0.93286311203799
O           12.80912618582276        4.39845602550863        0.05516835976763
H           10.82574739784284        2.99837264121150        0.41305685505164
H            9.89889858783151        5.90531781470178        0.23038450415653
H            8.07832641495163        4.96648929144423       -0.53981840428272
H            8.99245653327896        2.04833247859025        2.14812608561607
H            8.67901023613544        3.72169470029846        2.61307403253961
H           11.00196539221724        9.30925058762069        5.41797221943619
