59
 energy: -87.498332012134 gnorm: 0.000608909036 xtb: 6.7.1 (edcfbbe)
C           -4.29344098974911       -0.51235175855990       -0.27076400758446
C           -5.52098176824008       -1.14892195989360       -0.27020926330680
C           -5.58212564521998       -2.53313190239564       -0.27520930891084
C           -3.11515092473909       -1.25293628535705       -0.29369415920476
C           -3.18272252829225       -2.64333248141471       -0.28634628328093
C           -4.41313894687603       -3.27682582706379       -0.27445880049294
H           -6.53953497876422       -3.03227828475190       -0.27078886296719
H           -4.45993666256944       -4.35533342999759       -0.26183117213744
H           -4.22453349300367        0.56566586759835       -0.25467166041742
H           -6.42918173957547       -0.56529720855202       -0.26154609488274
C           -1.81878917202699       -0.51520633642867       -0.28245091041695
H           -2.28017122942895       -3.23577788435299       -0.25806027140331
N           -0.82844577446580       -1.08360849505908       -0.99364766676048
C            0.51176268245716       -0.54851628432379       -1.05318812523520
C            1.50111999545205       -1.40644619089875       -0.24795887570051
H            0.46948103734382        0.45973723582667       -0.63486755292043
H            0.83263757398336       -0.48834268907647       -2.09641450509276
C            2.85620141480425       -0.75858717189481       -0.21032821628000
H            1.57216299445749       -2.39718693118818       -0.69920722081761
H            1.11510771148496       -1.51180017427545        0.76816165954417
H           -1.00392015561766       -1.95482119925335       -1.46888006776812
O           -1.68406694144603        0.54926085833968        0.31470770795439
C            3.09556847670976        0.31305854192531        0.63745608466790
C            4.32911081068073        0.93994798119596        0.68089854562852
C            5.36057244484320        0.49283037850604       -0.13719694863515
C            5.12671036975209       -0.57987785632397       -0.99802503155651
C            3.89036982873526       -1.19088188234865       -1.03310085447258
H            2.30426629966420        0.66804837530395        1.28199379164996
H            4.47145678183286        1.77087493943083        1.35311014447201
O            6.61838825819468        1.02284274286018       -0.17419815277467
H            5.93504791679543       -0.91629337039252       -1.62851232264127
H            3.73066715142900       -2.02063139114468       -1.70559295127417
C            6.93565950696952        2.08916973950438        0.70547039425710
C            8.41168305670334        2.42339649525372        0.49995390519102
H            6.74964171544593        1.78381851511918        1.74176294024766
H            6.31882897775203        2.96752101051187        0.47317488049379
C            8.79961687042763        3.79422544388854        1.09858574424057
H            8.60393183656632        2.43683856758438       -0.57582689769498
H            9.02838746141163        1.64023191538181        0.93875852675564
C           10.26751522824136        4.02103525554459        0.84615097699517
C            8.57423401709678        3.83098706256024        2.61704706950356
O            7.99964126018856        4.82176711713341        0.54689976639062
C           10.79895871247829        5.14259013932992        0.36011302747979
C           12.25198273074234        5.27778978678741        0.16942225544552
C           12.77131736191469        6.63358478514035       -0.15572179377709
C           14.03931678839902        6.65437260495963       -0.95261109686117
H           14.76456917591339        5.98624548942658       -0.49007701064273
H           14.44995735520919        7.65767636873342       -1.01207519986530
H           13.85228845284747        6.28255748685009       -1.95972842557504
C           12.18848858781842        7.73582170290467        0.30937043965863
H           11.30219563828234        7.71163508699441        0.91854273519881
H           12.60858946951650        8.70839440492812        0.11505322864463
O           13.00860498840497        4.31944142632559        0.26781431033515
H           10.92318466299506        3.20568587631486        1.12025995762080
H           10.17750211794548        5.98287547018737        0.09312034673030
H            8.11559049948536        4.82759047005698       -0.41223099169132
H            9.09162281379824        3.00725912988896        3.09728187540790
H            7.51101194504077        3.77201258154265        2.82675153347664
H            8.94918796981739        4.77159614109768        3.01155885504115
