59
 energy: -87.315204900908 gnorm: 0.104572260109 xtb: 6.7.1 (edcfbbe)
C           -3.95984080909590       -0.38378538190613        0.37402712234197
C           -5.30697312273411       -0.66955938722371        0.40605460183663
C           -5.77390738102052       -1.85040069451818       -0.13448047939431
C           -3.06216556197504       -1.27065586317430       -0.20244958961330
C           -3.54256195301051       -2.46099096378352       -0.73463701020646
C           -4.89012924968676       -2.74591573564422       -0.70180932943533
H           -6.82757236008298       -2.07478714254479       -0.10939349282570
H           -5.25405103453462       -3.67144826076212       -1.11688950229156
H           -3.57864241708300        0.52810122218380        0.80125584342256
H           -5.99497872486767        0.02774332652319        0.85502710123673
C           -1.61982663983206       -0.93776262196376       -0.21211102210368
H           -2.85024912448261       -3.16741437711833       -1.15752853030256
N           -0.81746778998772       -1.49101007811973       -1.19196993792675
C            0.57417270725950       -1.09230208788297       -1.30437968417140
C            1.36937926570374       -1.45712238810669       -0.05979160717204
H            0.60048085277401       -0.00778288419390       -1.45772930277019
H            1.03092782831409       -1.54106113810158       -2.19386427670572
C            2.77744241285141       -0.94772992392610       -0.09276449504752
H            1.36697882835268       -2.54383440333694        0.07602484679297
H            0.85548934744268       -1.05462865778696        0.82076400670501
H           -1.22746592809894       -1.96602502353962       -2.00064148285535
O           -1.16291365992496       -0.17848109952850        0.62831674070576
C            3.07173999111257        0.33463543783547        0.34586268217569
C            4.35704721592241        0.82252738355996        0.29794192317089
C            5.39994246462869        0.03818178156222       -0.19899060486292
C            5.09110720763019       -1.24510963683637       -0.65320966817122
C            3.80449923563266       -1.72669801465877       -0.60337273203996
H            2.27391569784180        0.94941638695833        0.72651639455561
H            4.55521849311373        1.82012478812777        0.64436025555653
O            6.73753479626099        0.44253963949968       -0.27740782046478
H            5.88957743689943       -1.85056216515590       -1.04382737933214
H            3.58390080814711       -2.71717108782466       -0.96258764100498
C            7.00323985695855        1.74115354180409        0.24028648336396
C            8.48190975994027        2.07777634463319        0.18465015684662
H            6.63700292860265        1.77716733871748        1.27160675217842
H            6.42881786571575        2.46523112014301       -0.34852321807499
C            8.79390831462033        3.53145261128658        0.61456260029620
H            8.83783004442632        1.92837689905042       -0.83856478179281
H            9.04743966198976        1.37576260386705        0.80386435055144
C           10.26493028969458        3.81706163380960        0.41574251956425
C            8.43220030141373        3.75168680164057        2.05994453247715
O            8.02522186240867        4.41637312104987       -0.19935463852584
C           10.73561119025011        5.04389517074678        0.26848408887478
C           12.16624400280372        5.29827170723989        0.09777007622832
C           12.66888929699101        6.69106587220552        0.02529964696808
C           13.98148951510165        6.90096988960450       -0.63063228679959
H           14.46318283075439        5.94194262459972       -0.82808198010344
H           14.64795199312164        7.48603964268374        0.00309405802648
H           13.86439746075332        7.42192900032585       -1.58113705400385
C           11.99501566658654        7.71532930718830        0.53472029565180
H           11.06199492764902        7.58248205413571        1.04239873515325
H           12.38061117250808        8.71287404343221        0.47237312905769
O           12.94298399039666        4.37032236225644        0.00054753918387
H           10.95953031858966        2.99627631722529        0.43987351327992
H           10.04901813045357        5.86961532480614        0.25189098331063
H            8.36362591966585        4.45513107394781       -1.12188948926676
H            8.92434772940712        3.06849054161893        2.72062391705356
H            7.37598413639694        3.73476752343668        2.22571921478109
H           10.83503199933089       10.25754457998177        7.20238492592954
59
 energy: -87.335728554262 gnorm: 0.056865916686 xtb: 6.7.1 (edcfbbe)
C           -3.95275385825435       -0.38397770942861        0.37209600992839
C           -5.30425289648163       -0.66890976433096        0.40587452347859
C           -5.77528537045241       -1.85256966400801       -0.13666731157402
C           -3.05739196660183       -1.27387823390025       -0.21659604537764
C           -3.53860319557862       -2.46862088227019       -0.74658444223442
C           -4.89003646627206       -2.75331095572345       -0.70568853715166
H           -6.83067524164990       -2.07613765688578       -0.10925311660256
H           -5.25598327561786       -3.68032926161784       -1.11809796539273
H           -3.57110518960259        0.53152653240281        0.79826484336546
H           -5.99145714325697        0.03072074604915        0.85629264010982
C           -1.61536805210312       -0.92307279179914       -0.21871363727468
H           -2.84933976845841       -3.18364371683278       -1.16471960375280
N           -0.82187765351105       -1.47758802807660       -1.18130203383996
C            0.56906598107562       -1.08218907229900       -1.29938185111471
C            1.37298121350002       -1.46600502164223       -0.05102428595128
H            0.61305288141959        0.00530277677019       -1.43925017698557
H            1.00596985007680       -1.55343585356925       -2.18416559685567
C            2.77622841167537       -0.94991781635973       -0.10344911555159
H            1.37169305979859       -2.55384713062368        0.06045079892099
H            0.86046877138738       -1.04269981796656        0.81833094030738
H           -1.23383658066338       -1.96171752050386       -1.96892896330634
O           -1.15459606537306       -0.16523208809177        0.62693321658572
C            3.07058093441932        0.33850284705860        0.34104254766447
C            4.35579827454252        0.83246817311108        0.29845631272456
C            5.40000599697851        0.04527990709594       -0.19940924707805
C            5.10413615565272       -1.24525253982553       -0.66008617010466
C            3.81530813804341       -1.72937854882579       -0.61111025666779
H            2.27372344150352        0.95266535628399        0.72968844114335
H            4.54244708365776        1.83214139653543        0.64952774226935
O            6.71409088601152        0.45050786637243       -0.25952119366373
H            5.90614962897412       -1.85127830565345       -1.04768223868977
H            3.60057770382990       -2.72471652591599       -0.96473581295664
C            6.99339600718020        1.74863233284235        0.25095735464918
C            8.48785517803163        2.05336373543331        0.17689439828576
H            6.64876316842766        1.79203206705665        1.29083639997346
H            6.43547696812935        2.48562585666595       -0.34052561276019
C            8.78641386670096        3.53184276559103        0.58021934847396
H            8.83891008717023        1.92516957196943       -0.84961092285082
H            9.05091044685669        1.36552386208311        0.81006205990691
C           10.26808896390036        3.81444855397911        0.42095150716612
C            8.39542566984893        3.63356457222307        2.00781700669524
O            8.00128605867712        4.40996990335718       -0.20390546538280
C           10.73858846770929        5.04889026368446        0.26996060353366
C           12.18111970717410        5.29158003092346        0.09694141501432
C           12.66029761776388        6.69427418282433        0.01531398051071
C           13.98934729378104        6.89457300124822       -0.63636781843592
H           14.46839450872328        5.93571064526205       -0.82995521434481
H           14.64577276866599        7.48729309383497       -0.00148211521894
H           13.86892415262436        7.41936332552054       -1.58304122640262
C           11.97923991642659        7.71724343809181        0.53164016522835
H           11.04853547754463        7.59011011489908        1.05136177936505
H           12.37730867245605        8.71545200303898        0.49061128927647
O           12.96271210487985        4.35823919560313       -0.00132028439161
H           10.95726810757408        2.98394132225860        0.44411642009635
H           10.05789140608724        5.88478514607932        0.24465518227277
H            8.35164023303132        4.45886214683038       -1.10963674427522
H            8.95820338527270        3.06836316720534        2.74747178703525
H            7.34227800583903        3.82352289215628        2.24940838718351
H           10.83525607085589       10.25623611385771        7.20000590503511
59
 energy: -87.342807511507 gnorm: 0.037607619313 xtb: 6.7.1 (edcfbbe)
C           -3.94798300576317       -0.38508910389698        0.36456259695316
C           -5.30109916525914       -0.66966558445497        0.40141400965118
C           -5.77390400257436       -1.85513484051939       -0.14049004356325
C           -3.05368184256215       -1.27741675028068       -0.22716426046025
C           -3.53385969881233       -2.47472400680742       -0.75481231128786
C           -4.88785597890996       -2.75815314326715       -0.70982764847234
H           -6.82999347420184       -2.07908056419353       -0.11020107959915
H           -5.25520165234861       -3.68779188903360       -1.11745499787303
H           -3.56444351088127        0.53057338994671        0.79199280903762
H           -5.98690003430178        0.03021160802725        0.85578851181347
C           -1.61262961669070       -0.90745715018233       -0.21751043368088
H           -2.84972426945261       -3.19762461231262       -1.17210781902258
N           -0.82566111394562       -1.45587910023463       -1.16684208407801
C            0.56666712782144       -1.07129280719496       -1.29451201783727
C            1.38262450887206       -1.47760593637572       -0.04752825170254
H            0.62921855888975        0.01743454883191       -1.41558994434821
H            0.98052652460104       -1.55729407372406       -2.17904379185038
C            2.78054385959014       -0.95530018151954       -0.11166259130867
H            1.37982336917038       -2.56501682121485        0.03989109914096
H            0.87296165259247       -1.04542220953049        0.81584783705393
H           -1.24189972205771       -1.96227031549618       -1.92948301061635
O           -1.15939582221507       -0.13554936774196        0.62482623754344
C            3.06818706746079        0.33747430783684        0.33361173585898
C            4.35019567963907        0.84256082294841        0.29418593668470
C            5.40015629904718        0.05809599346406       -0.20031132492648
C            5.11805051759099       -1.23718212996096       -0.66705534836518
C            3.83085892250883       -1.72801763009541       -0.61713726533221
H            2.26963684449642        0.94783096892179        0.72850564805929
H            4.52194279998015        1.84276762393391        0.65371121321297
O            6.69296093444156        0.46007519079208       -0.23409039783245
H            5.92524055372526       -1.84117120941702       -1.04984750452577
H            3.62526268124680       -2.72811681047115       -0.96685140745645
C            6.98875333613751        1.75554389473668        0.26754301216240
C            8.49353378718540        2.03231613644483        0.16655765502892
H            6.67584657197915        1.81271900767807        1.31885235185535
H            6.44198196475368        2.50622474911137       -0.31685087447349
C            8.77221882269026        3.53867466266617        0.56693468807951
H            8.83225976965752        1.90853953003931       -0.86394077296202
H            9.05387575569160        1.35742979356637        0.80921101433563
C           10.26334471700108        3.81506286329912        0.42933195676674
C            8.36640250312242        3.54996178349905        1.96453938292169
O            7.98330297853465        4.40305134149155       -0.19704321374223
C           10.73607992129810        5.04981080232637        0.26583481754936
C           12.18956496363194        5.28339390461400        0.09166859927411
C           12.65539427990895        6.69114888592005        0.01374479336156
C           13.99357856831431        6.89071514920754       -0.64042769962474
H           14.46735556521198        5.93106876096912       -0.82952244219672
H           14.64400372856898        7.48819328627516       -0.00565420034549
H           13.86998243893642        7.41659768891506       -1.58555235286064
C           11.97186387492609        7.70966990083495        0.54058961764813
H           11.03447446917945        7.59413259830861        1.05435132424810
H           12.36955486342195        8.71049229263608        0.49965287051689
O           12.97049732562941        4.34721796171436        0.00035126415252
H           10.94283106619729        2.97477545289690        0.46447792903783
H           10.06946059131231        5.89823439117316        0.23070253262810
H            8.33944012968413        4.45420966047367       -1.09257404017541
H            8.96467235692027        3.05526874159570        2.72869553120842
H            7.34236333733371        3.89749390416522        2.24302141152723
H           10.83575732107718       10.25330463871099        7.19466074321630
59
 energy: -87.345333588391 gnorm: 0.020408988210 xtb: 6.7.1 (edcfbbe)
C           -3.94812864269789       -0.38541609495713        0.35954745021452
C           -5.30052159178943       -0.67174041038684        0.39661912433350
C           -5.77048602618206       -1.85899937453431       -0.14397330345110
C           -3.05134300284414       -1.27680094688410       -0.22864419134824
C           -3.52753154372343       -2.47572269128562       -0.75633976937449
C           -4.88200072045339       -2.76066543129000       -0.71165922841950
H           -6.82619352470552       -2.08523206576602       -0.11343138969849
H           -5.24806711075247       -3.69238540519269       -1.11686541953832
H           -3.56407585349651        0.53095618663812        0.78503766221510
H           -5.98671303328533        0.02761674383584        0.85132252161537
C           -1.61267547091720       -0.88883307455525       -0.21345315579011
H           -2.84657204812748       -3.20225782121585       -1.17448375572457
N           -0.82483107480753       -1.43767311851999       -1.15441027699419
C            0.56900593046143       -1.06461598259946       -1.29053329650173
C            1.39278066873745       -1.48938673275438       -0.04969803851557
H            0.64268669796490        0.02416929664572       -1.39698247284407
H            0.96595233763802       -1.55149425196536       -2.18028314892054
C            2.78704201519166       -0.96053235386541       -0.11924418188855
H            1.39088493556316       -2.57710469922570        0.02004957473080
H            0.88713239448452       -1.06389998399416        0.81770144971215
H           -1.24387075274317       -1.97339861196190       -1.89584632180155
O           -1.17056962246200       -0.10164461693208        0.62275741140784
C            3.06387122273207        0.33428502850209        0.32573630492142
C            4.34179650207939        0.85041352087589        0.29043385228094
C            5.39993982441610        0.07171511801394       -0.19656505374909
C            5.12882293500021       -1.22430786044340       -0.66970034885566
C            3.84502731126489       -1.72369828381528       -0.62395173606899
H            2.26099255571263        0.93862264931417        0.72221418290829
H            4.50169547880230        1.85095342020751        0.65575852300481
O            6.68671862881679        0.47059835114892       -0.20710800399280
H            5.94243500437412       -1.82252857389804       -1.04886213368181
H            3.65041201303510       -2.72722821853424       -0.97207585276585
C            6.99222979810955        1.76223138779601        0.28706630726390
C            8.49818948347512        2.02644327575331        0.15626680568222
H            6.70925972793527        1.82944384090337        1.34908995416570
H            6.44137350150665        2.52018484352907       -0.28232185149493
C            8.75877649221926        3.55005698820821        0.56648514405306
H            8.82330553539966        1.90171674516324       -0.87813981081728
H            9.06382984428577        1.35834898693212        0.79849945392544
C           10.25548923813420        3.81864585921987        0.43648278863847
C            8.33653244598709        3.51569508301568        1.94713083649918
O            7.96945030162853        4.40198883107286       -0.19271401072735
C           10.73194155020651        5.04850934848197        0.25797998183171
C           12.19178637045455        5.27665564018075        0.09205101554534
C           12.64990301992714        6.68631768881355        0.01077517592411
C           13.99141422588558        6.88763993882670       -0.64315877022305
H           14.46550161661467        5.92764787206559       -0.82605898045966
H           14.63810152689418        7.49015166951167       -0.00989623139335
H           13.86708060595462        7.40909837619829       -1.59038858913492
C           11.96371331204756        7.70166216686273        0.53974448224045
H           11.02968340366164        7.59163392130896        1.06198255281480
H           12.36735313420208        8.70167350415954        0.51264982103430
O           12.97096138354513        4.34026835263335        0.00623221363720
H           10.92643848746578        2.97233540293748        0.49233913000588
H           10.07747547851083        5.90538391546394        0.20574659476593
H            8.32532604958630        4.45654590708225       -1.08721004274630
H            8.95484164765033        3.04407283669870        2.69776037243363
H            7.34887334243095        3.88337462821661        2.21660376994986
H           10.83657203900053       10.24852927840077        7.18590490917006
59
 energy: -87.346965331220 gnorm: 0.029973263986 xtb: 6.7.1 (edcfbbe)
C           -3.95190552060140       -0.38388282396856        0.35561349774142
C           -5.30233978566747       -0.67437801669798        0.39096958068554
C           -5.76530374608345       -1.86420013867631       -0.14783237543663
C           -3.04904711006186       -1.27183703336339       -0.22526106750408
C           -3.51838438112875       -2.47233218777802       -0.75335384628983
C           -4.87189880220918       -2.76163545919509       -0.71180421405256
H           -6.81981538698764       -2.09498954667227       -0.11953084203556
H           -5.23385514366587       -3.69527063033557       -1.11656076944593
H           -3.56890116279608        0.53364453290623        0.77802137217788
H           -5.99111803083168        0.02367163324549        0.84284678432363
C           -1.61325772077961       -0.86731159522282       -0.20841010952620
H           -2.83925581525708       -3.20035906771497       -1.17215569045954
N           -0.82111675241379       -1.41998619939002       -1.14364061645652
C            0.57397264131136       -1.05902835728388       -1.28796442530436
C            1.40326385085947       -1.50465014476588       -0.05744314602474
H            0.65463924315270        0.02924668623648       -1.37838357395164
H            0.95756560604665       -1.53499508934406       -2.18779628449747
C            2.79427150768649       -0.96769960956012       -0.12642601790111
H            1.40518573270121       -2.59304932923651       -0.00579495933051
H            0.90110150884738       -1.09901447876592        0.82114761085699
H           -1.24083046470690       -1.99623131323578       -1.85919669067376
O           -1.18437066078281       -0.06137398416309        0.61700698881720
C            3.05706830149040        0.32863272032155        0.31678519964336
C            4.33040326496473        0.85609278775908        0.28721640875192
C            5.39715313982917        0.08410230920042       -0.18944520335021
C            5.13686824397180       -1.21000999080819       -0.66935821977611
C            3.85787927063671       -1.71959919088234       -0.63080721958887
H            2.24755850072095        0.92575213863054        0.71036494632978
H            4.48071059001279        1.85652176095607        0.65733607223899
O            6.68605915624714        0.47779747359331       -0.17487736575692
H            5.95836619384827       -1.79887114928729       -1.04571904479712
H            3.67550162255795       -2.72424681352459       -0.98229054285992
C            6.99727379545030        1.76342770461306        0.31009293089532
C            8.49696045465069        2.02448997768064        0.13689099258400
H            6.75457569381010        1.83830372630947        1.38594836003621
H            6.42865730108440        2.52650319325022       -0.23297800023078
C            8.74794134909372        3.55700269120807        0.56686528872634
H            8.80198847356346        1.90197079072734       -0.90339755207019
H            9.07893301994910        1.36095391350349        0.76796575333165
C           10.24736661827163        3.81753229266413        0.43811239022968
C            8.32267256581949        3.48748199129464        1.93970260409977
O            7.96542956666074        4.40921264102912       -0.18655770637756
C           10.72632193839439        5.04064429987147        0.24183509052827
C           12.19026023637965        5.26716095536183        0.09028333765540
C           12.64741510748867        6.67644634952761        0.01475532540500
C           13.98538246407177        6.88394819009833       -0.64349206606447
H           14.46275049158387        5.92452290591414       -0.82155039184607
H           14.63071373897517        7.49184468393864       -0.01415007719748
H           13.85765013322200        7.39860008201451       -1.59411003533174
C           11.96188504487652        7.68737084917687        0.54965697546835
H           11.02537910860367        7.58191945311646        1.06774317997695
H           12.36035929084879        8.68852482894723        0.51839147827201
O           12.96736240034165        4.33188866365962        0.01399518811609
H           10.91069144912648        2.96887223996421        0.52567417407716
H           10.08302830352379        5.90308253763879        0.16374632978768
H            8.31189231959545        4.46956817771031       -1.08662249102418
H            8.92191406411032        3.00433527418270        2.67127184193375
H            7.37015255241729        3.95311443583592        2.21887887632634
H           10.83789462718673       10.24078725781954        7.17176196614217
59
 energy: -87.348577790253 gnorm: 0.021581070048 xtb: 6.7.1 (edcfbbe)
C           -3.95760830706939       -0.37976522359813        0.35258413560313
C           -5.30582456225201       -0.67681163534201        0.38486230803685
C           -5.75928382536629       -1.87020338275918       -0.15229538996602
C           -3.04625039999162       -1.26252684012140       -0.22087434307825
C           -3.50714150049705       -2.46559356212533       -0.74858498972567
C           -4.85882046539141       -2.76214732867696       -0.71109195310408
H           -6.81221530879993       -2.10736767397045       -0.12780238320819
H           -5.21423173942984       -3.69792792094981       -1.11650204970432
H           -3.57774754775538        0.54004638253107        0.77157845869686
H           -5.99925446964601        0.01941075816956        0.83146400478536
C           -1.61344555635387       -0.84559481707491       -0.20561512677178
H           -2.82750473145008       -3.19379947313137       -1.16556473193145
N           -0.81632578163651       -1.40512719048825       -1.13633768692216
C            0.57907777730421       -1.05299243285983       -1.28512837609618
C            1.41336632209132       -1.52293460015866       -0.07024686849119
H            0.66320851420965        0.03556307499468       -1.35703181644236
H            0.95319762843466       -1.50898614442577       -2.19905166571050
C            2.80162994208232       -0.97565757434600       -0.13410809918801
H            1.42224685925837       -2.61278889740974       -0.03887659371989
H            0.91377332581081       -1.14549200782907        0.82412209673483
H           -1.23275746518555       -2.02165639374730       -1.82397983035902
O           -1.19508508755254       -0.02242860754571        0.60650923836830
C            3.04954148961619        0.32217526511772        0.30812304641620
C            4.31906694455829        0.85946428065842        0.28864373798453
C            5.39318502956288        0.09305591224645       -0.17576433611594
C            5.14391670298731       -1.19723919456673       -0.66441557165483
C            3.86945369350725       -1.71711442686656       -0.63768386410523
H            2.23185838815644        0.91177342733224        0.69527127164952
H            4.46254174216862        1.85964813467109        0.66231832013381
O            6.68942601938072        0.48130578486441       -0.13749065638261
H            5.97420876453282       -1.77459073261174       -1.03881857623622
H            3.69906271379623       -2.72073190645226       -0.99684953081981
C            7.00691375300939        1.76081679217348        0.33319960174933
C            8.49534824896236        2.02605436379794        0.10851967623967
H            6.81337058682565        1.84588821522743        1.42508322242877
H            6.41013298801687        2.52635216640825       -0.17685979652663
C            8.73481699021974        3.55858151340023        0.56562950224814
H            8.77419913185949        1.91032425792778       -0.93972997176036
H            9.10221894755038        1.36585192620326        0.72109274475831
C           10.23653514853661        3.81688232920463        0.44745129228425
C            8.29650521690016        3.48543447199037        1.93252068258523
O            7.95956755244809        4.41623653412218       -0.18462039533174
C           10.71723391934973        5.03195984578229        0.22176853949208
C           12.18391216719287        5.25656096304970        0.08646287493452
C           12.64299218898341        6.66480802265470        0.01770116553834
C           13.97627686110611        6.87812871154717       -0.64237142167301
H           14.46115768473959        5.92041586360679       -0.81438769326195
H           14.61956809804272        7.49391379207853       -0.01826560862567
H           13.84530141081765        7.38338856220727       -1.59782133664377
C           11.95849234402008        7.67153353873837        0.55884810153851
H           11.02280542248151        7.56533207538846        1.07727057852841
H           12.35388532038441        8.67328620714170        0.52881669844170
O           12.96027340926037        4.32208023488945        0.02552840158210
H           10.89490800337434        2.96972029110427        0.57379954115206
H           10.08238056685042        5.89659678628239        0.10799165785449
H            8.29738302553357        4.48603001976644       -1.09045649455248
H            8.90899461906861        3.01214846668071        2.66826946047107
H            7.38891471484601        3.98834871834727        2.22444248964050
H           10.83966657055725       10.23038027677555        7.15272430821932
59
 energy: -87.350659700277 gnorm: 0.026923793121 xtb: 6.7.1 (edcfbbe)
C           -3.96400585188116       -0.37285642603082        0.35005765236575
C           -5.31010253482932       -0.67904496299454        0.37816648947353
C           -5.75240110662193       -1.87728797660006       -0.15735351045206
C           -3.04236209937180       -1.24937891943505       -0.21705385540347
C           -3.49355765864180       -2.45693119538322       -0.74225285802854
C           -4.84285728763096       -2.76352288676189       -0.70925309297016
H           -6.80350357868470       -2.12259254825888       -0.13746881902933
H           -5.18924379968778       -3.70238748370955       -1.11507389377866
H           -3.59024415345315        0.55103383274014        0.76559831441040
H           -6.01023521802933        0.01452028878009        0.81804270933721
C           -1.61269105088039       -0.82389173064672       -0.20676249049860
H           -2.81058143573240       -3.18431549926122       -1.15427320486921
N           -0.81205684390872       -1.39222192934962       -1.13312061824371
C            0.58257094280094       -1.04394498986500       -1.28046631617167
C            1.42366854074878       -1.54607770341241       -0.08872342670379
H            0.66691420839533        0.04652398674016       -1.32600585338544
H            0.95016895302221       -1.46971952127949       -2.21332590619407
C            2.80898797576077       -0.98529803918420       -0.14226945450370
H            1.44310512985996       -2.63782635954445       -0.08502488430062
H            0.92628964683269       -1.20480133936276        0.82472175323498
H           -1.21963032460978       -2.04367662262532       -1.79036143850508
O           -1.20004887129567        0.01437300099901        0.58959900030370
C            3.04092338131156        0.31427740394442        0.30221795907088
C            4.30745401241313        0.86009916172399        0.30039019306190