59
 energy: -87.484525247515 gnorm: 0.067556712124 xtb: 6.7.1 (edcfbbe)
C           -3.94845062942301       -0.43414078860522        0.40462836126296
C           -5.28559565916374       -0.76469964728445        0.41510740006990
C           -5.71169111154624       -1.93125671743647       -0.18641751511954
C           -3.01922904636995       -1.26100032054522       -0.20995882385595
C           -3.45903856145403       -2.43803243868679       -0.80348934679930
C           -4.79667164263135       -2.76790358156225       -0.79285853442479
H           -6.75753907203453       -2.19064312027857       -0.17861403233769
H           -5.12873229407532       -3.68264800404176       -1.25577075344346
H           -3.59913793819922        0.46643273394141        0.88046496820343
H           -5.99756627406035       -0.11377410776296        0.89540492650050
C           -1.58835602890488       -0.88126335946421       -0.18947771390995
H           -2.74367817266627       -3.10138478724031       -1.25654723631018
N           -0.75020276509007       -1.38857094779807       -1.16374970948736
C            0.63372226958160       -0.95494635145002       -1.23474848114533
C            1.40684171740297       -1.32296167767311        0.02276221521971
H            0.63845981449637        0.13214726609492       -1.37067548803292
H            1.12229129931041       -1.37879229028557       -2.11951356068033
C            2.81498235421027       -0.81245996550943        0.01725017272292
H            1.40400058124543       -2.41034008311735        0.15258677019677
H            0.87610039179365       -0.92610989658062        0.89577014643852
H           -1.12634791680319       -1.87088098070575       -1.98432794627573
O           -1.17270330231612       -0.12453942779927        0.67436989411284
C            3.09877629244819        0.47741026070717        0.44085747069235
C            4.38479232302887        0.96537944983045        0.41667164233937
C            5.44028669024741        0.17356343652727       -0.04002331636691
C            5.14287101983012       -1.11809294926084       -0.47759391021114
C            3.85555357731658       -1.59949286436112       -0.45218086082670
H            2.29138507889852        1.09804170389447        0.79062585530428
H            4.57441471190295        1.96901131789612        0.75047842984065
O            6.77968500592413        0.57648225878340       -0.09358785494285
H            5.95104923768734       -1.73009245130939       -0.83663804602675
H            3.64457542050351       -2.59650004251497       -0.79882114286568
C            7.03362138599246        1.88268614809970        0.40902249192414
C            8.51215277286703        2.22135260008388        0.37203502986094
H            6.64870576484019        1.93100887224096        1.43283231416307
H            6.46705747688531        2.59583091753040       -0.20014559376869
C            8.81811738770636        3.68109267566501        0.77365565560495
H            8.88902420428412        2.04765008114959       -0.63945813906054
H            9.06592579332000        1.53408410990590        1.01742836261666
C           10.29044488475785        3.95840987353602        0.59917158359762
C            8.42495610808600        3.93847007155468        2.23426406553720
O            8.05570944987904        4.56831289329021       -0.06959869691918
C           10.76313111612671        5.17113655385099        0.36818750175420
C           12.19874809067899        5.41687513404825        0.22990762330297
C           12.70143158562243        6.80138103882041        0.06073193685690
C           14.02971497992534        6.96506404424259       -0.57636539018129
H           14.51587497929213        5.99459510543795       -0.69171843353277
H           14.67995088855440        7.59579208088597        0.03130525988333
H           13.93778432510025        7.41668332017055       -1.56505513775108
C           12.01386042124189        7.85886538883602        0.47538683111764
H           11.06968757961604        7.76155460453538        0.97049080281937
H           12.39955633327002        8.84999211205691        0.34745768252059
O           12.97989174103161        4.48786698479327        0.23994106098135
H           10.98559294684874        3.14617664217701        0.71469724021250
H           10.07657021018526        5.98968747902428        0.25745938656302
H            8.32760825544393        4.43420301241082       -1.00272790990242
H            8.94661860257025        3.25848011016962        2.90605645367453
H            7.35322506820329        3.81534024803577        2.37334922440121
H            8.67819027657620        4.95946627104334        2.51370481389342
59
 energy: -87.490840932148 gnorm: 0.026402319600 xtb: 6.7.1 (edcfbbe)
C           -3.94286806020821       -0.43487992038535        0.39785230245956
C           -5.28408889175408       -0.76570734673132        0.41251186567001
C           -5.71413081150447       -1.93584185740805       -0.19003821750711
C           -3.01556436089653       -1.26438464195015       -0.22670959865877
C           -3.45529674732756       -2.44745898345006       -0.81667896900594
C           -4.79719120985310       -2.77802102514046       -0.79765009557764
H           -6.76179085954067       -2.19484052907614       -0.17913300820294
H           -5.13077691581916       -3.69576737904309       -1.25661503054245
H           -3.59073333037449        0.46974168405219        0.87121466114160
H           -5.99447943666735       -0.11180672093578        0.89496951310595
C           -1.58766981575410       -0.85954625831015       -0.19321650352156
H           -2.74179876383372       -3.11975365258353       -1.26546341011101
N           -0.75841537059915       -1.37253481598406       -1.14430743577211
C            0.62804158492350       -0.94438868472566       -1.22222672944351
C            1.40993163531297       -1.33721653293116        0.03234772760596
H            0.65785038554756        0.14691201862148       -1.34378453410656
H            1.09135234193334       -1.39326203292809       -2.10542435260053
C            2.81675910196808       -0.81560765005045        0.00123990560248
H            1.40852474480411       -2.42642415938207        0.13616091728361
H            0.88799821997816       -0.92265363715694        0.89921458394529
H           -1.13764768365456       -1.86007075608071       -1.94453069406837
O           -1.17505562097657       -0.09459495303475        0.67222776624234
C            3.09794816220822        0.47362924757895        0.43120776640086
C            4.38623269685585        0.97049999810803        0.41385905023580
C            5.43952188423157        0.18018939050750       -0.04052869013699
C            5.15872988625438       -1.11240614873999       -0.48245169271620
C            3.86702224855531       -1.59747692773349       -0.46404490011081
H            2.29117407287997        1.09311307186737        0.79262277683049
H            4.56336942251603        1.97695840619341        0.75454159760413
O            6.76158803772153        0.58806345505944       -0.08749133744895
H            5.97331738697217       -1.72369843906683       -0.83740986627690
H            3.66581147223581       -2.60177110270027       -0.80312811708699
C            7.02364895900985        1.89308639669843        0.41422586187783
C            8.51401889970543        2.20096103760695        0.36232136246252
H            6.66223131610860        1.94644918318788        1.44819643751191
H            6.47544278293038        2.62613874644982       -0.19275618273206
C            8.81007907212152        3.66372308820630        0.76597512860885
H            8.87721641588644        2.03174842863515       -0.65562821574853
H            9.05825883485686        1.52136607943549        1.02140980046828
C           10.28367621989657        3.95373233321167        0.61420781271744
C            8.42421096564654        3.94280823090363        2.22345706006600
O            8.04682363000737        4.56238763843246       -0.04520701317988
C           10.76414648865544        5.17313696743365        0.36961426740528
C           12.20887319864485        5.40805145465345        0.22735640092938
C           12.69081408207213        6.80301034916782        0.05043899231755
C           14.03665133908710        6.95899310964739       -0.58101778281144
H           14.51788332619415        5.98748578987783       -0.69137648817421
H           14.67936634131112        7.59685376953993        0.02393776303383
H           13.94274855753582        7.41134065694642       -1.56755966833352
C           11.99764290205163        7.85927880846538        0.47529066224657
H           11.05148435071874        7.76511344955052        0.97422275404462
H           12.39464994234463        8.85361797132579        0.37004962078823
O           13.00116173097261        4.47351316428064        0.23892511291516
H           10.97443760206211        3.13157928495548        0.72858311468274
H           10.08230603134115        5.99968252358995        0.24724262294805
H            8.31376824588033        4.44212094698197       -0.97087816456698
H            8.94951811006379        3.25858554017114        2.88462531376713
H            7.35313678775176        3.82233778064390        2.35728041548038
H            8.68613846100416        4.96390415353792        2.49192576005334
59
 energy: -87.492494952118 gnorm: 0.009308433960 xtb: 6.7.1 (edcfbbe)
C           -3.94370408742941       -0.43476301267552        0.38732110939112
C           -5.28556757027199       -0.76745882870640        0.40446088301242
C           -5.71381121351952       -1.94138395804825       -0.19535981042859
C           -3.01473076508649       -1.26621647101511       -0.23588348905213
C           -3.45019552566692       -2.45326182444099       -0.82270600790951
C           -4.79388397258475       -2.78460261786629       -0.80096208479021
H           -6.76140683738291       -2.20310905072279       -0.18219291405944
H           -5.12630757135083       -3.70619689680613       -1.25487526315571
H           -3.58977993282600        0.47133878911594        0.85875689455393
H           -5.99552089514726       -0.11389069484174        0.88941349120801
C           -1.58965921164832       -0.83860232992845       -0.18982471742994
H           -2.73968086401988       -3.13195122430473       -1.27024555341168
N           -0.76480036749852       -1.35095789193179       -1.12432978987224
C            0.62589273918223       -0.93741406650588       -1.21173101370467
C            1.41886971905067       -1.35440652113664        0.03702557112340
H            0.67479646321619        0.15512715655326       -1.31299300667041
H            1.06452317776118       -1.39557749086491       -2.09993378615438
C            2.82373741170792       -0.82531391737473       -0.00593416656187
H            1.42013072079794       -2.44346835522271        0.11583208967459
H            0.90619625901863       -0.94035064640498        0.90626913311140
H           -1.14900010401061       -1.85554653094901       -1.90417731625385
O           -1.19151614993996       -0.05230538576203        0.66800743455272
C            3.09541537223885        0.46479570419305        0.42583748383749
C            4.38098275238796        0.97615088908828        0.40904279440271
C            5.43683326464215        0.19306612527733       -0.04590067933645
C            5.17307839201550       -1.10225109082762       -0.48990000329087
C            3.88287459388539       -1.59714853076564       -0.47161616607234
H            2.28687678783034        1.08148355672057        0.79240656801329
H            4.54261907893407        1.98379429799645        0.75711448293092
O            6.74367848697499        0.60705719698474       -0.08538289147665
H            5.99445374081712       -1.70892782130296       -0.84047137082681
H            3.69426200294388       -2.60524515589207       -0.81137004946803
C            7.01483229551589        1.90617175597933        0.42248601090343
C            8.51210942841290        2.19640786077951        0.35896884345783
H            6.67051900475763        1.95977484148215        1.46226637242032
H            6.47763914702659        2.65559723670642       -0.17505785890838
C            8.80720266523566        3.66084569400640        0.75918220347055
H            8.86175191889396        2.02438978829603       -0.66229904211691
H            9.04954847940432        1.51876172020930        1.02192775522250
C           10.28164971112036        3.94929193110127        0.61075286777347
C            8.42746655230248        3.93935753884701        2.21990358403406
O            8.03789123914550        4.55685633885550       -0.03220733869405
C           10.76868985804406        5.16750638548260        0.35742917144390
C           12.21672407287267        5.39880583259003        0.22468408606061
C           12.68779673435142        6.79914846777639        0.05199662794696
C           14.04030395482337        6.95612629096089       -0.58329238766158
H           14.51526259157339        5.98310868248663       -0.68712194820272
H           14.67869942427893        7.59953375442158        0.01803563178103
H           13.94081265006372        7.40483271220377       -1.57044512542325
C           11.99185306341116        7.85014832084175        0.48754854781720
H           11.03685191294575        7.76026131108794        0.97334866557306
H           12.38547617161455        8.84767373374428        0.38104335230634
O           13.01423750202243        4.46510320073413        0.23925992159046
H           10.96654505252306        3.12271128632432        0.74741113511077
H           10.09454805285915        5.99997090957581        0.22385267824915
H            8.29808973427601        4.44888771046923       -0.95505699782696
H            8.95112402802639        3.25503704777136        2.88034637193680
H            7.35569610514049        3.83057510969430        2.35104097883065
H            8.69902275433254        4.96065113593624        2.47229803702959
59
 energy: -87.493060388840 gnorm: 0.008289064991 xtb: 6.7.1 (edcfbbe)
C           -3.94965055835805       -0.43315898440443        0.38170027065857
C           -5.29015940305902       -0.76991254967818        0.39740056465187
C           -5.71203122757453       -1.94736275422614       -0.19971793372514
C           -3.01545507410967       -1.26286016422870       -0.23575515893357
C           -3.44410128411548       -2.45254279084570       -0.82114690637452
C           -4.78727264572769       -2.78771778221603       -0.80123296599387
H           -6.75844410450206       -2.21376346773639       -0.18779031951840
H           -5.11561920176743       -3.71211990085428       -1.25292750901365
H           -3.59740718936963        0.47544571125159        0.84901660638547
H           -6.00273812590611       -0.11709290231850        0.87927032862162
C           -1.59278472243594       -0.81857429503481       -0.18694361433101
H           -2.73454349299825       -3.13341327227177       -1.26763110284056
N           -0.76575062583797       -1.33554614323374       -1.11163944464182
C            0.62773942914887       -0.93486198505021       -1.20545121689402
C            1.42687271527522       -1.37127300638619        0.03618109363129
H            0.68572488356603        0.15730780067591       -1.29129604067819
H            1.05262555922860       -1.38948697753664       -2.10008136807857
C            2.82932589178573       -0.83582467146695       -0.00846659522729
H            1.43191954436107       -2.46053504947463        0.09707057492720
H            0.91736244207890       -0.96892283232408        0.91191016742934
H           -1.15205966938371       -1.86580934810699       -1.87446788791184
O           -1.20632690542308       -0.01784401008185        0.66420368010871
C            3.09069653708334        0.45576664686867        0.42373166185250
C            4.37212895073070        0.97924178214444        0.40661726290542
C            5.43352372490201        0.20460712387828       -0.04940235549436
C            5.18063144277714       -1.09240876039390       -0.49613188949397
C            3.89462090043441       -1.59779448629127       -0.47678587904690
H            2.27897617182537        1.06757705460298        0.79195933072372
H            4.52249157082493        1.98792680658300        0.75650685827158
O            6.73319257420492        0.62502473203926       -0.08797761594616
H            6.00722455358968       -1.69139227754226       -0.84715520689499
H            3.71698984486253       -2.60732400753379       -0.81922544478641
C            7.00716342897600        1.91754751072712        0.43009691380147
C            8.50656604943147        2.19929822625387        0.35806916376404
H            6.67111457989050        1.96444519285989        1.47240989745159
H            6.47121279035636        2.67625489977275       -0.15590503690827
C            8.80637243005135        3.66329972824801        0.75659747115014
H            8.84744743775846        2.02310808374763       -0.66484912312736
H            9.04205913128763        1.51964880577365        1.01891374527756
C           10.28151747232454        3.94552565802576        0.60745461911624
C            8.43459709905386        3.94056620041678        2.22128756570005
O            8.03492818253358        4.56008548084334       -0.02424346117421
C           10.77240100943354        5.15883694157023        0.34189602394800
C           12.22069267025588        5.39080525271895        0.21977269178320
C           12.68609360868989        6.79356224508449        0.05018181497224
C           14.04070555926627        6.95471118605596       -0.58420493037881
H           14.51698774842547        5.98224184959473       -0.68009095610557
H           14.67445633599893        7.60499447353461        0.01395704010924
H           13.93799948223388        7.39603167596590       -1.57419601309340
C           11.98590004833669        7.83986290610199        0.48769767160298
H           11.03538715911092        7.74990029056245        0.98209029296910
H           12.38205306103306        8.83843347831533        0.39412175187717
O           13.02088978356812        4.46046559881568        0.24313357988019
H           10.96120120546940        3.11744609909108        0.76199326131042
H           10.10347562538861        5.99244562898192        0.19091570501511
H            8.28844125129782        4.46062668030431       -0.94944771906714
H            8.95349739210995        3.25224468394094        2.88024886071607
H            7.36203220792507        3.84213723193552        2.35224611191992
H            8.71510474367815        4.96011875194641        2.46951111315884
59
 energy: -87.493720191816 gnorm: 0.010889331940 xtb: 6.7.1 (edcfbbe)
C           -3.96174550594641       -0.42749537048479        0.37345757465390
C           -5.29933840700215       -0.77349497184519        0.38559387791436
C           -5.70830138748978       -1.95760606666639       -0.20669640228087
C           -3.01669938662347       -1.25262756524097       -0.23310314096955
C           -3.43273906005169       -2.44742790879090       -0.81515118843965
C           -4.77382353184329       -2.79204002294319       -0.79940840238518
H           -6.75231119788222       -2.23309912042576       -0.19883276224877
H           -5.09313372861672       -3.72097179524290       -1.24869190573567
H           -3.61490807207097        0.48570221475964        0.83478707812461
H           -6.01845948487287       -0.12256239285470        0.85973059553993
C           -1.59699468407186       -0.78924001522944       -0.18212256980463
H           -2.72270587870223       -3.13051060367457       -1.25755148173408
N           -0.76464919499923       -1.31526410461131       -1.09484947132393
C            0.63148026703126       -0.93161317621548       -1.19633263316350
C            1.43873655794273       -1.40134629434864        0.03061085816997
H            0.69986696656770        0.16013511796959       -1.25595213032371
H            1.03953474349334       -1.37145486836915       -2.10413455722097
C            2.83656565539985       -0.85411903896948       -0.01080830476822
H            1.45152885784385       -2.49169501504369        0.06120979160436
H            0.93052467452886       -1.02629452687221        0.91995210044491
H           -1.15069308058452       -1.89449854535659       -1.82685670587089
O           -1.22622757643069        0.03347928591343        0.65527862538375
C            3.08097031026200        0.44008560795668        0.42258028740165
C            4.35497743475172        0.98233695378064        0.40452183216566
C            5.42604969937065        0.22275411745340       -0.05516123452669
C            5.18854452475504       -1.07639644629332       -0.50634622128806
C            3.91062731687871       -1.59991059878030       -0.48479596450840
H            2.26287522716915        1.04189589581701        0.79288477908247
H            4.49010861025526        1.99249322663377        0.75561771706323
O            6.71819755364037        0.65497290694740       -0.09613879495389
H            6.02350544692663       -1.66046427071372       -0.86157133352546
H            3.75006137171594       -2.61068578968845       -0.83224295011599
C            6.99296157542919        1.93612891790326        0.44311516615269
C            8.49320223763101        2.20975936385227        0.35872215745983
H            6.66658529991334        1.96629197534842        1.48882557059187
H            6.45447402718257        2.70788997484543       -0.12239961451273
C            8.80583430302796        3.67127106432277        0.75498202997214
H            8.82160060069754        2.02842931813321       -0.66693424115871
H            9.02898720649155        1.52505528610418        1.01323358103977
C           10.28223058745710        3.94059462734662        0.60218165697300
C            8.44773223119233        3.94572637838424        2.22586218649480
O            8.03347874957355        4.57285246302396       -0.01232656514492
C           10.77945815908530        5.14403177292917        0.31181891731801
C           12.22805616995312        5.37684984842076        0.20935186205093
C           12.68921706666635        6.78237113606925        0.05241110177406
C           14.04132621862660        6.95289825490171       -0.58545469667533
H           14.52522695431426        5.98329203620950       -0.66992832391089
H           14.66828485058210        7.61594611977858        0.00540742997986
H           13.93166963205435        7.38090266957931       -1.58061531730492
C           11.98544726318758        7.82032433412553        0.50095261651247
H           11.03227317995333        7.72741007958496        0.98969481230669
H           12.37305026339762        8.82193017265394        0.40809459860023
O           13.03088973317661        4.45126764221105        0.24652058672441
H           10.95339478217614        3.11192786416362        0.78851076540290
H           10.11820379924598        5.97805733923275        0.13142038523768
H            8.27593036610766        4.48403486942239       -0.94273744767200
H            8.95779579002025        3.24677968066957        2.87967960472664
H            7.37383770410559        3.86474030352491        2.35927581221882
H            8.74542620740265        4.96019968868327        2.47485840249242
59
 energy: -87.494273077209 gnorm: 0.012095081305 xtb: 6.7.1 (edcfbbe)
C           -3.97456981039952       -0.41929900610034        0.36534545869032
C           -5.30901035572285       -0.77632718100645        0.37265675791285
C           -5.70409414973910       -1.96787860480327       -0.21410887786691
C           -3.01779233248605       -1.23929006511234       -0.22987971856803
C           -3.42070630840669       -2.44068609354992       -0.80632384933731
C           -4.75888156470725       -2.79675405343235       -0.79590628635701
H           -6.74540190843052       -2.25337078372454       -0.21081700311942
H           -5.06716258103560       -3.73090852513845       -1.24219878639992
H           -3.63613383353824        0.49965429698174        0.82115814146125
H           -6.03632402713948       -0.12799962200125        0.83759257076779
C           -1.60074847194304       -0.76440434764585       -0.17935029597216
H           -2.70755072888563       -3.12472465990190       -1.24174889039307
N           -0.76296056660034       -1.30026808398662       -1.08265773645557
C            0.63386688749089       -0.92825355566613       -1.18606512802796
C            1.44982928119172       -1.43471959795414        0.02110905952150
H            0.70804245723934        0.16389345717665       -1.21512901941633
H            1.03051285053756       -1.34258587847483       -2.11074111235634
C            2.84210010014655       -0.87343945835986       -0.01221048219027
H            1.47221766008217       -2.52638172811915        0.01723569146580
H            0.94110847412458       -1.09502621293633        0.92665059628942
H           -1.14315631511713       -1.92609057215235       -1.78205506992462
O           -1.24033884380083        0.07668960593109        0.64277708138641
C            3.06983031346136        0.42285707295380        0.42464020868761
C            4.33588949878807        0.98296731143184        0.40530958338097
C            5.41596151975305        0.23977929835928       -0.06115469678666
C            5.19295097761613       -1.06060345307839       -0.51726229619078
C            3.92376233705013       -1.60289209206063       -0.49341127003704
H            2.24418147735182        1.01232160762842        0.79765177530074
H            4.45904051277929        1.99401248705836        0.75777824620176
O            6.70340659183846        0.68600711635733       -0.10805880312068
H            6.03614098049282       -1.62826770940796       -0.87934163827279
H            3.77860797161824       -2.61401720141340       -0.84579640968781
C            6.97693147153340        1.95541675289717        0.45672058395984
C            8.47635592048809        2.22558632463044        0.36097866474248
H            6.65783480032869        1.96333852626987        1.50557555100809
H            6.43261568456387        2.73906376783175       -0.08678860332855
C            8.80492889315161        3.68292860811853        0.75676095433670
H            8.79325099451829        2.04261376180887       -0.66807924143784
H            9.01541434768770        1.53468165613220        1.00689155066102
C           10.28287294997114        3.93741415666809        0.59888865501690
C            8.46040838767422        3.95343763062732        2.23278745266859
O            8.03476475540812        4.59255248363786       -0.00102668514399
C           10.78693635750863        5.12907439939251        0.27663723887568
C           12.23613883695745        5.36260012689517        0.19731257287114
C           12.69276300334598        6.77053670030628        0.04793202536136
C           14.04277445756029        6.95111715010817       -0.58804646733966
H           14.54130119404471        5.98679807669058       -0.65678497262682
H           14.65952759785950        7.63247482800096       -0.00651323000723
H           13.92840453773698        7.36076903092317       -1.59069139350381
C           11.98410490380113        7.80014519756667        0.50591715589227
H           11.03624748845924        7.69841086352530        1.00290303434401
H           12.37087678428166        8.80420285365722        0.43205683546706
O           13.04134410792089        4.44113179064641        0.24867029557445
H           10.94594547034440        3.11050530616947        0.81926718020688
H           10.13214422977412        5.96121813330783        0.06437543422041
H            8.26724862644543        4.50866353611261       -0.93564037876428
H            8.96083907666481        3.24023743305404        2.87889289637297
H            7.38547926111170        3.89049367357205        2.37063519520869
H            8.77792776724504        4.96059346359137        2.48867989478775
59
 energy: -87.494811460299 gnorm: 0.009559128775 xtb: 6.7.1 (edcfbbe)
C           -3.98652167165883       -0.40968408400455        0.35587469531066
C           -5.31781047961010       -0.77856367905014        0.35783887163691
C           -5.69950254071766       -1.97816721611665       -0.22177627887745
C           -3.01848195945162       -1.22557600123677       -0.22715600952619
C           -3.40876260614307       -2.43535564763106       -0.79467548604030
C           -4.74358664002022       -2.80342201632027       -0.79033613470519
H           -6.73812879934213       -2.27307726242882       -0.22311139891099
H           -5.03978757006104       -3.74365739976679       -1.23188268660922
H           -3.65930948890195        0.51656619208838        0.80570684658897
H           -6.05414325342874       -0.13289578151756        0.81232595112563
C           -1.60421264449370       -0.74462532851293       -0.17941722235876
H           -2.68965045605492       -3.11923105987741       -1.22007489468998
N           -0.76145376101521       -1.29060611189293       -1.07471837725970
C            0.63413735157436       -0.92283707765020       -1.17326602256785
C            1.46058602584330       -1.47079608401990        0.00779405756043
H            0.70839386803353        0.17033156392094       -1.16457794911936
H            1.02463666068196       -1.29997148010178       -2.11819882165526
C            2.84642849472148       -0.89337740973374       -0.01428347560289
H            1.49414632925767       -2.56271592039047       -0.03627720589910
H            0.95186954697374       -1.17342923313390        0.93087550697988
H           -1.12952087564177       -1.95486205405256       -1.74161861842077
O           -1.24897713586073        0.11283534678495        0.62586304455320
C            3.05792006031695        0.40362225163759        0.43026745300791
C            4.31567655248969        0.98090935788324        0.41010003909332