59
 energy: -87.156810836706 gnorm: 0.608254602854 xtb: 6.7.1 (edcfbbe)
C           -4.31900000000000       -0.80400000000000        0.23200000000000
C           -5.56700000000000       -1.42900000000000        0.24500000000000
C           -5.67900000000000       -2.76800000000000       -0.12900000000000
C           -3.17900000000000       -1.51400000000000       -0.16400000000000
C           -3.29400000000000       -2.86400000000000       -0.52300000000000
C           -4.54500000000000       -3.48600000000000       -0.50800000000000
H           -6.65100000000000       -3.25500000000000       -0.11400000000000
H           -4.63500000000000       -4.53500000000000       -0.78100000000000
H           -4.23600000000000        0.23900000000000        0.53200000000000
H           -6.45000000000000       -0.87300000000000        0.55100000000000
C           -1.86900000000000       -0.80700000000000       -0.15500000000000
H           -2.42100000000000       -3.45300000000000       -0.78600000000000
N           -0.92500000000000       -1.24500000000000       -1.06100000000000
C            0.38800000000000       -0.63100000000000       -1.13700000000000
C            1.31700000000000       -1.12600000000000       -0.02600000000000
H            0.26700000000000        0.45700000000000       -1.08900000000000
H            0.80000000000000       -0.87600000000000       -2.12200000000000
C            2.68100000000000       -0.48800000000000       -0.10800000000000
H            1.41500000000000       -2.21800000000000       -0.08100000000000
H            0.88300000000000       -0.92300000000000        0.96100000000000
H           -1.16700000000000       -1.94600000000000       -1.74700000000000
O           -1.67900000000000        0.12900000000000        0.61500000000000
C            2.90800000000000        0.76600000000000        0.47300000000000
C            4.16800000000000        1.36900000000000        0.40100000000000
C            5.21700000000000        0.72400000000000       -0.25400000000000
C            4.98700000000000       -0.51700000000000       -0.85100000000000
C            3.73000000000000       -1.12200000000000       -0.78000000000000
H            2.10100000000000        1.28200000000000        0.99100000000000
H            4.29300000000000        2.34200000000000        0.86500000000000
O            6.49400000000000        1.19700000000000       -0.38600000000000
H            5.79900000000000       -1.02200000000000       -1.37000000000000
H            3.58200000000000       -2.09300000000000       -1.24800000000000
C            6.83100000000000        2.36300000000000        0.37100000000000
C            8.33300000000000        2.60100000000000        0.20700000000000
H            6.59500000000000        2.19900000000000        1.42800000000000
H            6.27000000000000        3.22300000000000       -0.01300000000000
C            8.84400000000000        3.84700000000000        0.94700000000000
H            8.54500000000000        2.69100000000000       -0.86700000000000
H            8.87300000000000        1.70400000000000        0.54000000000000
C           10.33000000000000        4.02000000000000        0.75500000000000
C            8.57700000000000        3.78200000000000        2.44300000000000
O            8.16400000000000        4.99700000000000        0.44400000000000
C           10.96200000000000        5.15700000000000        0.41400000000000
C           12.44400000000000        5.17100000000000        0.26700000000000
C           13.13100000000000        6.50100000000000        0.15400000000000
C           14.49000000000000        6.45100000000000       -0.48400000000000
H           15.17400000000000        5.83700000000000        0.11100000000000
H           14.93600000000000        7.44800000000000       -0.57500000000000
H           14.42400000000000        6.02700000000000       -1.49100000000000
C           12.61000000000000        7.64600000000000        0.62500000000000
H           11.65600000000000        7.70200000000000        1.13700000000000
H           13.15600000000000        8.58200000000000        0.53800000000000
O           13.08800000000000        4.12800000000000        0.19600000000000
H           10.93100000000000        3.12800000000000        0.93900000000000
H           10.41600000000000        6.07500000000000        0.24200000000000
H            8.28900000000000        5.00500000000000       -0.52100000000000
H            8.86600000000000        2.82800000000000        2.89200000000000
H            7.54900000000000        4.03800000000000        2.71300000000000
H            8.94100000000000        4.67900000000000        1.03600000000000
