59
 energy: -87.156810836706 gnorm: 0.608254602854 xtb: 6.7.1 (edcfbbe)
C           -4.31900000000000       -0.80400000000000        0.23200000000000
C           -5.56700000000000       -1.42900000000000        0.24500000000000
C           -5.67900000000000       -2.76800000000000       -0.12900000000000
C           -3.17900000000000       -1.51400000000000       -0.16400000000000
C           -3.29400000000000       -2.86400000000000       -0.52300000000000
C           -4.54500000000000       -3.48600000000000       -0.50800000000000
H           -6.65100000000000       -3.25500000000000       -0.11400000000000
H           -4.63500000000000       -4.53500000000000       -0.78100000000000
H           -4.23600000000000        0.23900000000000        0.53200000000000
H           -6.45000000000000       -0.87300000000000        0.55100000000000
C           -1.86900000000000       -0.80700000000000       -0.15500000000000
H           -2.42100000000000       -3.45300000000000       -0.78600000000000
N           -0.92500000000000       -1.24500000000000       -1.06100000000000
C            0.38800000000000       -0.63100000000000       -1.13700000000000
C            1.31700000000000       -1.12600000000000       -0.02600000000000
H            0.26700000000000        0.45700000000000       -1.08900000000000
H            0.80000000000000       -0.87600000000000       -2.12200000000000
C            2.68100000000000       -0.48800000000000       -0.10800000000000
H            1.41500000000000       -2.21800000000000       -0.08100000000000
H            0.88300000000000       -0.92300000000000        0.96100000000000
H           -1.16700000000000       -1.94600000000000       -1.74700000000000
O           -1.67900000000000        0.12900000000000        0.61500000000000
C            2.90800000000000        0.76600000000000        0.47300000000000
C            4.16800000000000        1.36900000000000        0.40100000000000
C            5.21700000000000        0.72400000000000       -0.25400000000000
C            4.98700000000000       -0.51700000000000       -0.85100000000000
C            3.73000000000000       -1.12200000000000       -0.78000000000000
H            2.10100000000000        1.28200000000000        0.99100000000000
H            4.29300000000000        2.34200000000000        0.86500000000000
O            6.49400000000000        1.19700000000000       -0.38600000000000
H            5.79900000000000       -1.02200000000000       -1.37000000000000
H            3.58200000000000       -2.09300000000000       -1.24800000000000
C            6.83100000000000        2.36300000000000        0.37100000000000
C            8.33300000000000        2.60100000000000        0.20700000000000
H            6.59500000000000        2.19900000000000        1.42800000000000
H            6.27000000000000        3.22300000000000       -0.01300000000000
C            8.84400000000000        3.84700000000000        0.94700000000000
H            8.54500000000000        2.69100000000000       -0.86700000000000
H            8.87300000000000        1.70400000000000        0.54000000000000
C           10.33000000000000        4.02000000000000        0.75500000000000
C            8.57700000000000        3.78200000000000        2.44300000000000
O            8.16400000000000        4.99700000000000        0.44400000000000
C           10.96200000000000        5.15700000000000        0.41400000000000
C           12.44400000000000        5.17100000000000        0.26700000000000
C           13.13100000000000        6.50100000000000        0.15400000000000
C           14.49000000000000        6.45100000000000       -0.48400000000000
H           15.17400000000000        5.83700000000000        0.11100000000000
H           14.93600000000000        7.44800000000000       -0.57500000000000
H           14.42400000000000        6.02700000000000       -1.49100000000000
C           12.61000000000000        7.64600000000000        0.62500000000000
H           11.65600000000000        7.70200000000000        1.13700000000000
H           13.15600000000000        8.58200000000000        0.53800000000000
O           13.08800000000000        4.12800000000000        0.19600000000000
H           10.93100000000000        3.12800000000000        0.93900000000000
H           10.41600000000000        6.07500000000000        0.24200000000000
H            8.28900000000000        5.00500000000000       -0.52100000000000
H            8.86600000000000        2.82800000000000        2.89200000000000
H            7.54900000000000        4.03800000000000        2.71300000000000
H            8.94100000000000        4.67900000000000        1.03600000000000
59
 energy: -87.255069273782 gnorm: 0.177090190562 xtb: 6.7.1 (edcfbbe)
C           -4.32008912911807       -0.81063637871655        0.22963867390381
C           -5.56218265339173       -1.43212571270110        0.24359386774600
C           -5.67517949059345       -2.76626043986842       -0.12886534750001
C           -3.18166362645219       -1.51750268058109       -0.16888015400175
C           -3.30023091963091       -2.86366090006567       -0.52293882642318
C           -4.54461060831181       -3.48182240231640       -0.50495746520307
H           -6.64446149852143       -3.25166134013370       -0.11463331208268
H           -4.63371073900386       -4.52712917842721       -0.77896671647299
H           -4.23172249201031        0.22933623682457        0.52788896432082
H           -6.44231779162089       -0.87677385307089        0.54843575090496
C           -1.86948829774026       -0.80752281104304       -0.16015474053201
H           -2.42666778922232       -3.44828884259798       -0.78467861930615
N           -0.93259613217887       -1.23978415836880       -1.05274990403630
C            0.38457809178124       -0.63276017954855       -1.13649097060464
C            1.32015061843840       -1.12799851860856       -0.02345343848439
H            0.26908977699267        0.45534799915519       -1.08062907604716
H            0.80220970651846       -0.87674904089192       -2.11761384221661
C            2.68204349007330       -0.48582237122858       -0.10945972841426
H            1.41631430756278       -2.21672438872691       -0.08780994614478
H            0.87783582169888       -0.91481743790522        0.95512341156686
H           -1.17153303424146       -1.94269885803004       -1.73578063150352
O           -1.66977132293189        0.12653971845795        0.60958841391563
C            2.91270218975668        0.76180084652340        0.46817182962738
C            4.16445099141124        1.36487744886192        0.39952168230010
C            5.21168411775000        0.71995319744689       -0.25470818765805
C            4.98063284515277       -0.52025161689122       -0.85071317455990
C            3.73033473983541       -1.11600685648023       -0.77855909152932
H            2.10812744298904        1.27507379935852        0.98567320545435
H            4.29365805099552        2.33498719047756        0.86268537588960
O            6.48648875716844        1.19898812292866       -0.38188865081651
H            5.79403524868660       -1.01779582103008       -1.36598441421365
H            3.58142779043962       -2.08461546251552       -1.24303064058736
C            6.83066213402527        2.35913049151228        0.36806261374733
C            8.33065726973777        2.56765489825566        0.18224569760726
H            6.59504612972742        2.19975295352817        1.42661940483005
H            6.26971606026167        3.22257794075782       -0.01025543794805
C            8.83622822518627        3.78234974078309        0.95356053801241
H            8.54670257957516        2.68341706368821       -0.88233257360300
H            8.87231314783112        1.69262229935462        0.53881705187924
C           10.33716822944306        4.00585358334691        0.75984658951858
C            8.58670857942261        3.77426345103594        2.44889449316185
O            8.13834002475860        5.00854107566816        0.43229462106018
C           10.96813280227606        5.15239314823279        0.42048483664877
C           12.43850043583753        5.17846588558674        0.26917340083218
C           13.12537741977505        6.50208467663196        0.15141805228555
C           14.48804330492755        6.45457359151092       -0.48433168529031
H           15.16541477882877        5.83454743492053        0.10754832570401
H           14.93024953088680        7.44832342795130       -0.57150069589340
H           14.42370075456717        6.02311133698465       -1.48534817123350
C           12.61005431181241        7.64199499362611        0.62367239589062
H           11.66027537741872        7.69886289698016        1.13313339352797
H           13.15399903249397        8.57398697797123        0.53893036415794
O           13.08664850769946        4.12960624451340        0.19864973067402
H           10.93818244429554        3.12676798884243        0.94550414727288
H           10.42445241122464        6.07066542886933        0.24250859458562
H            8.28803568386172        5.01551234725665       -0.52922355900901
H            8.87182642102299        2.82934441258669        2.89447162274175
H            7.56531732073299        4.04616094965226        2.71112537355529
H            8.94770862008807        4.80993944966502        1.06265657799255
59
 energy: -87.276903330173 gnorm: 0.113326281614 xtb: 6.7.1 (edcfbbe)
C           -4.31674608854063       -0.81628312330590        0.22397252801992
C           -5.55507834316976       -1.43441647538129        0.24090654718753
C           -5.67059512916679       -2.76523743312755       -0.12882770724891
C           -3.18031021851062       -1.51935539961490       -0.17489529698213
C           -3.30249017368805       -2.86259888449264       -0.52499615633930
C           -4.54254122688606       -3.47866876049693       -0.50263018370664
H           -6.63739894792590       -3.24836436603725       -0.11574127485958
H           -4.63064019013116       -4.52070514247319       -0.77552869631861
H           -4.21943725549289        0.21949477143046        0.52020731228682
H           -6.43125053986310       -0.87915740822960        0.54539325019189
C           -1.86820825051418       -0.80543543646745       -0.16183410445792
H           -2.42961963013398       -3.44329498632622       -0.78637747578256
N           -0.93904880131314       -1.23427460967911       -1.04353450029175
C            0.38016853404351       -0.63337890746250       -1.13434229455923
C            1.31864839175236       -1.13101833410756       -0.02231076510667
H            0.27198490857557        0.45399983111366       -1.06147606939616
H            0.80155201183678       -0.87717007099440       -2.11161724250166
C            2.67661436481149       -0.48662648683004       -0.11257013765742
H            1.41672530783989       -2.21664795482071       -0.09776415203852
H            0.86589496700923       -0.90181888077621        0.94585672019599
H           -1.17735635964780       -1.94433110467332       -1.71684115604203
O           -1.65947436178159        0.12832345116071        0.60713337555618
C            2.91233141438012        0.75538735118584        0.46230757879712
C            4.15909760874517        1.35761565737490        0.39676979675471
C            5.20284647177832        0.71260173230717       -0.25745530381837
C            4.97052464802497       -0.52595335488335       -0.85257739802283
C            3.72425742772829       -1.11403867990429       -0.77935682365421
H            2.11127259047964        1.26504645039327        0.98044053807752
H            4.29557751044852        2.32318296195662        0.86090924452730
O            6.47464047651542        1.19460234457952       -0.38290309175001
H            5.78686514040101       -1.01598795749824       -1.36257547995031
H            3.57360624689640       -2.08038136025674       -1.23877618716357
C            6.83283992431238        2.35093214403037        0.35643308754487
C            8.33060187387827        2.55739479993054        0.15660160436861
H            6.60474840458167        2.20106284508007        1.41903432723218
H            6.27147989132548        3.21968883862737       -0.00985408744856
C            8.83336388166931        3.76841058884342        0.95227409795239
H            8.54515067497637        2.66884321466156       -0.90671658554658
H            8.86358807040370        1.68155936397798        0.52289832858182
C           10.33932330115128        3.99997190919577        0.77234570167937
C            8.61950183690751        3.77727772552944        2.44086233284379
O            8.10786364404454        5.01036039311979        0.42404753735266
C           10.97519425833313        5.14786666296323        0.43714022389965
C           12.43209408394256        5.17955717937277        0.28078526078857
C           13.11329977089447        6.49812982064406        0.14576779812767
C           14.47751051386783        6.45345637651414       -0.48534815307159
H           15.14395268811084        5.82599088070667        0.10725980458067
H           14.91312305323922        7.44776657906912       -0.56393297521245
H           14.41805174052270        6.01331216369136       -1.48061260917215
C           12.60360091493081        7.63521404471160        0.62021439185308
H           11.65729483418837        7.69183741169325        1.12878898823306
H           13.15092429573913        8.56175521995957        0.54211457654062
O           13.08701139324164        4.12916260757628        0.21380710152291
H           10.94595196688126        3.12860382976929        0.97150711496831
H           10.44150880079977        6.06708403594687        0.24311265871326
H            8.29634193567492        5.04694234523888       -0.53205972151502
H            8.90787736440900        2.84417073402971        2.90475637272735
H            7.61336072570762        4.07610608341785        2.71948710012923
H            8.93102765176520        4.88243276803623        1.07432032837971
59
 energy: -87.298958263072 gnorm: 0.081445933467 xtb: 6.7.1 (edcfbbe)
C           -4.31311370270334       -0.81974973166874        0.21931571005833
C           -5.54970968209297       -1.43469120208759        0.23746051086526
C           -5.66722317202811       -2.76438107858253       -0.13018911598354
C           -3.17715089428174       -1.52069037544126       -0.17900770993443
C           -3.30150936845863       -2.86244876015578       -0.52689448417276
C           -4.53976004698992       -3.47644657701665       -0.50283606351490
H           -6.63180617274748       -3.24661453548128       -0.11605910347865
H           -4.62610446501763       -4.51713495716394       -0.77257237339107
H           -4.20433650103980        0.21319657202715        0.51271431174007
H           -6.42253968236953       -0.87900255769539        0.54260172002705
C           -1.86557935363099       -0.80250655026443       -0.16264933341080
H           -2.42878001584400       -3.44016365915690       -0.78898259652074
N           -0.94381008019013       -1.22597272904188       -1.03774795320758
C            0.37625501528707       -0.63208970046450       -1.13535122121039
C            1.31519526931151       -1.13588553968815       -0.02039196840635
H            0.27243843377719        0.45318298511585       -1.04341260199036
H            0.79657417205098       -0.87380556194627       -2.11051354059546
C            2.66848102330796       -0.49011726522638       -0.11327637560801
H            1.41579931954861       -2.21775371322110       -0.10341763654892
H            0.85450211155933       -0.89410562768427        0.93808274718992
H           -1.17860242195618       -1.95200290480363       -1.69488173136636
O           -1.65183002162815        0.13238896596928        0.60669386210058
C            2.90889530910335        0.74842405807976        0.45959349917815
C            4.15267359465577        1.35069601419211        0.39466261419708
C            5.19285410400414        0.70452289203147       -0.26191658604382
C            4.95994671865536       -0.53430872047114       -0.85653928055521
C            3.71623617578656       -1.11639327385659       -0.78031257067112
H            2.10956336049024        1.25617664719197        0.97769749171772
H            4.29930964426803        2.31211581274945        0.85944186521797
O            6.46101339804887        1.18800787793137       -0.38499117226751
H            5.78171733634252       -1.01509236240497       -1.36129652022049
H            3.56181561133702       -2.08118707192302       -1.23664027954285
C            6.82940160614922        2.34073420506371        0.34111405223487
C            8.32571876627303        2.53734462325531        0.12799942801314
H            6.61602072976565        2.20210805219121        1.41065653991939
H            6.26915816964643        3.21694189622331       -0.01320173873344
C            8.83793463251110        3.74021958494277        0.94284601166399
H            8.54240541622376        2.65339012787866       -0.93145773453200
H            8.85518095081394        1.66062036525538        0.49841947999141
C           10.33636466593946        3.98831810938311        0.78503455189494
C            8.66480329965954        3.77512991860082        2.41259859440941
O            8.07189886481649        5.00051763440789        0.41910896405181
C           10.97880393490432        5.13994830476447        0.45240505611274
C           12.41973862057769        5.17833423698838        0.29369459113422
C           13.09922937850748        6.49133601761169        0.14420877210647
C           14.46393022523038        6.44958173235551       -0.48609466666018
H           15.12077969036541        5.81535905839775        0.10794048164225
H           14.89392957429101        7.44367030037634       -0.55679026588405
H           14.40906332223746        6.00445067767616       -1.47786243167804
C           12.59621435385649        7.62842680462808        0.62258642639528
H           11.64971997453348        7.68621225807189        1.12641417201756
H           13.14348203277954        8.55185470949115        0.53975289196506
O           13.08948995563004        4.12819918028642        0.24143249650331
H           10.95304220751970        3.12881423421517        1.00393224709045
H           10.45797052487867        6.06280427750186        0.24183718410422
H            8.33013139080503        5.10045712834289       -0.52394063749745
H            8.95929402455615        2.86520045718146        2.91388669501401
H            7.68579792749277        4.12187947525076        2.73525497213531
H            8.89808074347979        5.00197925981579        1.09383975293450
59
 energy: -87.318653721234 gnorm: 0.082442803238 xtb: 6.7.1 (edcfbbe)
C           -4.30998400555614       -0.82044254053077        0.21609810551962
C           -5.54630154839243       -1.43391579421088        0.23460116864920
C           -5.66404528423337       -2.76420874071046       -0.13125343130893
C           -3.17391252216171       -1.52138324396387       -0.18046037675138
C           -3.29799385762068       -2.86281599182495       -0.52872285173915
C           -4.53632291984387       -3.47610332386714       -0.50328786220600
H           -6.62798518921367       -3.24632614450688       -0.11722088490933
H           -4.62177039695329       -4.51678888968359       -0.77185205717244
H           -4.19231447159759        0.21156193944655        0.50742415419502
H           -6.41787357873685       -0.87722902933421        0.53939953595583
C           -1.86447608249292       -0.79970363509446       -0.16210797492828
H           -2.42546295929634       -3.44021154116226       -0.79126219424047
N           -0.94646018478876       -1.21871307779014       -1.03868217486256
C            0.37355345441741       -0.63022047914190       -1.13644675115183
C            1.31071850531639       -1.14087317808601       -0.01951766362033
H            0.27291388249654        0.45302540819625       -1.02993097742771
H            0.79276551330319       -0.86811300802986       -2.11121805606784
C            2.66104799195914       -0.49541601622904       -0.11247450951816
H            1.41099641384559       -2.22110169849208       -0.10651241983815
H            0.84399899597399       -0.89298082861039        0.93292435925579
H           -1.17546513113020       -1.96473881223061       -1.67629664349879
O           -1.65147006315641        0.13678545724885        0.60760057915480
C            2.90286657740790        0.74234593855572        0.45957802770556
C            4.14615682274650        1.34408913129693        0.39377576196246
C            5.18323391207138        0.69622322353651       -0.26562600071719
C            4.95040954106172       -0.54310154916717       -0.86104855696505
C            3.70753594448069       -1.12258671065161       -0.78205316195418
H            2.10384126767040        1.24895333693092        0.97891547835335
H            4.30122701725591        2.30319285546514        0.85875272913170
O            6.44876133537368        1.17838073897733       -0.38840160131047
H            5.77682209551886       -1.01728859367953       -1.36320404226862
H            3.54883818580240       -2.08746348475595       -1.23633881506037
C            6.82366085220383        2.32977513584944        0.32608688453084
C            8.31693319937698        2.51545448403659        0.09868247037368
H            6.62499949660108        2.20190541761659        1.40175426453368
H            6.26638311180633        3.21092947644835       -0.02219975248798
C            8.84560081073310        3.70372527781407        0.92281042384233
H            8.53530507127399        2.63798321808197       -0.95814351810046
H            8.84288802907929        1.63430324638842        0.46534618370407
C           10.32413780156677        3.96896974280612        0.79175593739808
C            8.72306951639223        3.77696865991992        2.37732878030938
O            8.06459609989391        4.99611969401409        0.42796774900812
C           10.97472810283333        5.12704977620267        0.46371295820915
C           12.40517818238978        5.17148117859951        0.31706696072410
C           13.08073975950830        6.48415241477759        0.14192776782754
C           14.44661552845150        6.44273615178701       -0.48606853030657
H           15.09832796377920        5.80575572625650        0.11058302614223
H           14.87453825331406        7.43713545289418       -0.55209342652767
H           14.39616225647818        5.99629934081731       -1.47715647111150
C           12.58260634094877        7.62419829166417        0.61819947115889
H           11.64115464698769        7.68253442989449        1.13067171133064
H           13.13621517990804        8.54380603432745        0.53930239916590
O           13.09289484761040        4.12494627966727        0.28072501650630
H           10.95323876367396        3.12256111229172        1.02795948368100
H           10.46729983039633        6.05522519038436        0.23960646503700
H            8.37906883262803        5.16731698183216       -0.49410369662586
H            9.01979893373324        2.89352209948676        2.92248393792470
H            7.77825825822837        4.17629324167838        2.74910491912362
H            8.86075106867576        5.15602022656240        1.11553769226268
59
 energy: -87.336788659884 gnorm: 0.074335132587 xtb: 6.7.1 (edcfbbe)
C           -4.30700187208128       -0.81999159147631        0.21417504934008
C           -5.54385284276325       -1.43306732600329        0.23190726045406
C           -5.66064288688753       -2.76425595810536       -0.13311997262028
C           -3.17074451747230       -1.52203026712757       -0.18015191105445
C           -3.29329705061378       -2.86359851836319       -0.52995895461692
C           -4.53266463987532       -3.47674630133691       -0.50457275899447
H           -6.62484747484754       -3.24691642498490       -0.11883299888570
H           -4.61803548800686       -4.51821862256289       -0.77240678545755
H           -4.18468924027000        0.21230149515081        0.50375980441758
H           -6.41564012514292       -0.87540783998586        0.53558456328903
C           -1.86465234840350       -0.79751532841312       -0.16111207122636
H           -2.42160702435157       -3.44265029305952       -0.79298999218397
N           -0.94810284123928       -1.21282584358881       -1.04473974630405
C            0.37173125077750       -0.62835148222033       -1.13647007184886
C            1.30514506329901       -1.14562566160826       -0.01948238137547
H            0.27315890046457        0.45347917108419       -1.02085948701322
H            0.79107301072380       -0.86064088970949       -2.11256931937181
C            2.65485844927792       -0.50207434126645       -0.11077567154491
H            1.40329892114667       -2.22624284550128       -0.10763511052287
H            0.83525143805587       -0.89726381319862        0.93123292404894
H           -1.17045033950184       -1.97886098345779       -1.66101400408179
O           -1.65493665111594        0.14007093942520        0.60801832993815
C            2.89536406723481        0.73624301382099        0.46165958871373
C            4.13933431271045        1.33713555262529        0.39380843942737
C            5.17355557534256        0.68790427886953       -0.26820966841635
C            4.94160424250185       -0.55157562088099       -0.86460654541160
C            3.69867893035626       -1.13129631205719       -0.78354786815888
H            2.09597190211351        1.24221503183811        0.98211000116250
H            4.29983634084034        2.29536695526932        0.85895836277535
O            6.43782797590748        1.16715765314583       -0.39243221804976
H            5.77035641023464       -1.02261378113972       -1.36686521755217
H            3.53611702513957       -2.09648283649318       -1.23707707477120
C            6.81544819431322        2.32084291496617        0.31300430689230
C            8.30470719993732        2.49650799705335        0.07316506605595
H            6.62910239930122        2.20070222253511        1.39213148642646
H            6.25982411311085        3.20265438343814       -0.03496672288101
C            8.85253486963536        3.66092085607937        0.89149229217120
H            8.52343293608127        2.62549494745665       -0.98294953274685
H            8.82847841608513        1.60872460823685        0.42960819115213
C           10.30678891388181        3.94724650767960        0.80302530908311
C            8.79562266701114        3.78084354878852        2.34287881323248
O            8.10030388158955        5.00460334832076        0.44931985297272
C           10.96572755483936        5.11291675807468        0.47554951655269
C           12.38834083703554        5.15919530918296        0.33481423468265
C           13.06395859029094        6.47481416843223        0.14821051024558
C           14.42713371693916        6.43389006847960       -0.48465014223354
H           15.07818215078229        5.79566284119593        0.11181550176072
H           14.85581596336181        7.42926269846766       -0.54808744769592
H           14.37842732854376        5.99057660583345       -1.47766475843391
C           12.57133800879101        7.61774902914698        0.62338380159806
H           11.62801268442505        7.68050525990610        1.13280338103577
H           13.12242377791822        8.53827449447333        0.53017758650746
O           13.09421674270315        4.11872489036800        0.32833760020224
H           10.94856603746989        3.11235487070275        1.04376225544899
H           10.47028456241704        6.04567395721681        0.24110379411057
H            8.42654026888414        5.22464434596835       -0.44742159632206
H            9.08116414326409        2.91539792249477        2.91737170318457
H            7.88965464760797        4.23397101358304        2.74996800208221
H            8.82097092022566        5.35022322323044        1.13603250081129
59
 energy: -87.347897065481 gnorm: 0.059833542325 xtb: 6.7.1 (edcfbbe)
C           -4.30464385475467       -0.81885474967193        0.21296576991477
C           -5.54229603513210       -1.43235828740390        0.22899310948243
C           -5.65743637690441       -2.76434477549962       -0.13547386822875
C           -3.16840684041563       -1.52253105658965       -0.17881873989861
C           -3.28899482510332       -2.86443823527638       -0.52990444333975
C           -4.52929435180274       -3.47792989965232       -0.50591964490185
H           -6.62243798945605       -3.24745522373033       -0.12170780262369
H           -4.61521256674307       -4.52006686644106       -0.77409543277058
H           -4.18390167489972        0.21456293190221        0.50170053978437
H           -6.41531143380675       -0.87402136868712        0.53049954887937
C           -1.86556956172271       -0.79626640269233       -0.16032776774000
H           -2.41817142949671       -3.44576526781603       -0.79297956200583
N           -0.94901068663769       -1.21062332111043       -1.05109999141294
C            0.37061781714639       -0.62690071101987       -1.13442390173711
C            1.29733386543528       -1.15081222111090       -0.01908709657741
H            0.27218912277974        0.45499438712329       -1.01681923363189
H            0.79167370102044       -0.85297512949804       -2.11288619092341
C            2.64932395440080       -0.51091506189887       -0.10741100698102
H            1.39180430099321       -2.23323847898106       -0.10697108402845
H            0.82812900093271       -0.90735706603860        0.93452789009657
H           -1.16582586406453       -1.98962405449355       -1.65178764826894
O           -1.65932447398541        0.14268542581959        0.60603723074403
C            2.88747727273868        0.72837199243335        0.46613445939002
C            4.13254074574630        1.32842904745012        0.39537563388096