59
 energy: -87.316092908618 gnorm: 0.104597611263 xtb: 6.7.1 (edcfbbe)
C           -3.97135884225733       -0.40783111867457        0.37073282943324
C           -5.31199307096888       -0.72175998751923        0.40953560703982
C           -5.75996405568129       -1.90214911677068       -0.14762345539694
C           -3.06065243275374       -1.26572047682285       -0.22880137466088
C           -3.52217634937555       -2.45588304017504       -0.77801917814288
C           -4.86331839098348       -2.76893744315776       -0.73894587805583
H           -6.80832023495828       -2.14943125197558       -0.11635399614190
H           -5.21226461994380       -3.69435965766273       -1.16693967055262
H           -3.60456792540736        0.50296033306427        0.81272502103061
H           -6.00962513862088       -0.04723675815583        0.87807056415763
C           -1.62481575934923       -0.90616360432800       -0.23482489377989
H           -2.82059909944736       -3.14235125414951       -1.21797249166530
N           -0.80355990877577       -1.45692604289067       -1.20012144576007
C            0.58749148134506       -1.05180975743102       -1.29221637043787
C            1.36073012004642       -1.39808630099961       -0.02856798898655
H            0.61128953161055        0.03072667793380       -1.45932735834326
H            1.06290144542603       -1.51000487611027       -2.16700939713040
C            2.77350783176002       -0.90172538461651       -0.04929212730250
H            1.34732862277838       -2.48189402753766        0.12787564477193
H            0.83656835815447       -0.97489843764654        0.83606214404733
H           -1.19369651830284       -1.95785315048988       -2.00287276701621
O           -1.18786698472511       -0.12883467774240        0.59974102663767
C            3.06970350559511        0.39278547250024        0.35029590197248
C            4.35990772224794        0.86819079174969        0.31376451968135
C            5.40656467888964        0.05875793394850       -0.13244261927176
C            5.09655666758026       -1.23811272730464       -0.54534162202844
C            3.80499073891216       -1.70711241351530       -0.50718038800463
H            2.26957137445650        1.02753252102572        0.69112042937473
H            4.55893778592294        1.87570165078079        0.62977572048039
O            6.74808831078858        0.45129649104965       -0.19825961018548
H            5.89818001087204       -1.86387843962435       -0.89525020228142
H            3.58388376311152       -2.70852187875347       -0.83427982002880
C            7.00955617615311        1.76908382231674        0.27045295754034
C            8.48737656088001        2.10587501491909        0.20990185833553
H            6.63715013608122        1.84268708055694        1.29758348921714
H            6.43774490427955        2.46924319033704       -0.34903797213136
C            8.79678067808611        3.56801315148163        0.61270886321158
H            8.84642890937432        1.93647113612278       -0.80909358679637
H            9.05174848657809        1.41679802504611        0.84456786650440
C           10.26718836678034        3.85180537512635        0.40779430584444
C            8.43583563962464        3.81337906308579        2.05446689073896
O            8.02604642045569        4.43688261204171       -0.21604401492901
C           10.74037516125481        5.07784547140031        0.26138475600781
C           12.17101824089157        5.32722010385671        0.08244192436212
C           12.68196905325736        6.71809004725375        0.03674069909654
C           13.99316141561622        6.93519256970221       -0.61969258905877
H           14.45734625692606        5.97862084385563       -0.86339275533692
H           14.67419262859461        7.47991811347915        0.03448932598556
H           13.87782209926234        7.50084984843970       -1.54440068484374
C           12.01752047811221        7.73391790808680        0.57472101880146
H           11.08672072077331        7.59417229009235        1.08459585093178
H           12.40931013969073        8.73009331352559        0.53474863853530
O           12.94096598763484        4.39673909185444       -0.04070396126539
H           10.96039896483786        3.02961554433571        0.42382733521020
H           10.05575661978315        5.90530128406495        0.25119228315242
H            8.37241556393673        4.47131009083676       -1.13583496498833
H            8.92885371035960        3.14189432531310        2.72653038025772
H            7.37979937047465        3.80282539316969        2.22206856915900
H           10.47309469231229        8.93968524172354        6.46392676302794
59
 energy: -87.336564454479 gnorm: 0.056688560283 xtb: 6.7.1 (edcfbbe)
C           -3.96411872563947       -0.40832730134901        0.36918760549488
C           -5.30928255166697       -0.72092519468171        0.40922076211577
C           -5.76138301826910       -1.90413335030266       -0.15005927775555
C           -3.05549235346451       -1.26987147858909       -0.24138453289697
C           -3.51805953011312       -2.46415349013206       -0.78898137955772
C           -4.86321970298123       -2.77623263897138       -0.74300594030818
H           -6.81151657337980       -2.15042289576096       -0.11651175392729
H           -5.21415790023724       -3.70308616605008       -1.16861212736038
H           -3.59698691543644        0.50666274769996        0.80907136585699
H           -6.00615174804814       -0.04382017014139        0.87887153409285
C           -1.62032841920134       -0.89193715871098       -0.24115209939529
H           -2.81956919332642       -3.15894651292360       -1.22529511704377
N           -0.80851816232905       -1.44364626422360       -1.18955274010172
C            0.58191412889262       -1.04196166155102       -1.28737258478142
C            1.36438159735814       -1.40725042558215       -0.01990017959571
H            0.62303019800689        0.04382694143489       -1.44031865574496
H            1.03743524388566       -1.52248042478781       -2.15765607801156
C            2.77256912019509       -0.90444190508873       -0.05961075323918
H            1.35224892524800       -2.49264286739682        0.11261147056185
H            0.84177029308644       -0.96296029333483        0.83304249856765
H           -1.20084233921607       -1.95255639893171       -1.97131501942315
O           -1.17910907809823       -0.11547957968818        0.59838525288777
C            3.06837656907071        0.39665216444720        0.34508827187773
C            4.35841996280078        0.87842734252520        0.31350773804561
C            5.40636482459363        0.06611046052523       -0.13363075133278
C            5.10969943978762       -1.23846371180734       -0.55221481760494
C            3.81602383687148       -1.71035363927449       -0.51412070866042
H            2.26904575313800        1.03075567420157        0.69456331029055
H            4.54610033936745        1.88798420580656        0.63449207541144
O            6.72418416891076        0.46044270301609       -0.18207274437568
H            5.91483779129448       -1.86461970596263       -0.89914740415533
H            3.60055625850841       -2.71630530814830       -0.83582582667856
C            6.99954772551644        1.77709639082457        0.28045853548924
C            8.49353829337545        2.08137325542168        0.20334480240019
H            6.64888566697680        1.85889452307374        1.31609287483158
H            6.44436999885536        2.49065198081550       -0.34130495460201
C            8.78965909100880        3.56780943254149        0.57868512689609
H            8.84745556987249        1.93332852239687       -0.81951986681254
H            9.05550940422251        1.40676812796159        0.85154454454376
C           10.27076640438716        3.84898131025820        0.41298218825402
C            8.39906790863057        3.69418082384270        2.00460904306117
O            8.00275611464250        4.43005268560912       -0.22096282955747
C           10.74332115680914        5.08272363354570        0.26253943068495
C           12.18585738251072        5.32068943872440        0.08234553967797
C           12.67331516845383        6.72155871279382        0.02740388131470
C           14.00068026296494        6.92886571010225       -0.62586439167900
H           14.46217671787664        5.97199975515632       -0.86556385795549
H           14.67164958766658        7.48113340619750        0.03014754497496
H           13.88203761441569        7.49836684430397       -1.54644283685976
C           12.00141849900017        7.73619467516887        0.57162052107286
H           11.07379829126228        7.60230681700232        1.09542128633407
H           12.40583180396812        8.73244498628126        0.55289787047933
O           12.96071908761887        4.38492016302379       -0.04278738547473
H           10.95882053776505        3.01736275636674        0.42887300744537
H           10.06483096570343        5.92065153361314        0.24490266029880
H            8.36095502303150        4.47451920355225       -1.12393564152028
H            8.96196931623432        3.14209968860690        2.75393159891761
H            7.34692041507797        3.89207650270586        2.24446210740509
H           10.47391975250177        8.93710542386584        6.45781780715036
59
 energy: -87.343606877467 gnorm: 0.037562831843 xtb: 6.7.1 (edcfbbe)
C           -3.95917379262338       -0.40948003747037        0.36161051498437
C           -5.30603184959112       -0.72136366241565        0.40457785839930
C           -5.75998588404684       -1.90647209125865       -0.15394892421673
C           -3.05145163143521       -1.27423348283484       -0.25079059274277
C           -3.51316402969904       -2.47095046537154       -0.79630560025544
C           -4.86105885529464       -2.78117408533987       -0.74679721463805
H           -6.81098829343857       -2.15243952968712       -0.11841464497281
H           -5.21344701540564       -3.71031855421121       -1.16849365224931
H           -3.59004474105091        0.50604712649645        0.80187900595637
H           -6.00146343729334       -0.04347821170162        0.87732421323273
C           -1.61752227060860       -0.87735274227503       -0.23914863720098
H           -2.81985936290838       -3.17382788446500       -1.23212437380528
N           -0.81287751557730       -1.42291554650660       -1.17459965865940
C            0.57895861464439       -1.03158088307130       -1.28246864322335
C            1.37395113466376       -1.41925033301512       -0.01610610027471
H            0.63805301288705        0.05579298728690       -1.41590086192785
H            1.01116669438870       -1.52641826482519       -2.15321604541823
C            2.77692754897110       -0.91006729151131       -0.06794280836489
H            1.36077045068979       -2.50466365662766        0.09251669358787
H            0.85455100662231       -0.96627555151953        0.83098771756542
H           -1.20978299123940       -1.95194014238688       -1.93176473260039
O           -1.18391746041584       -0.08635109407668        0.59630476667788
C            3.06568925955782        0.39551905399239        0.33734521266224
C            4.35247646664279        0.88880306026229        0.30823446325535
C            5.40617260743964        0.07946529839274       -0.13567323110888
C            5.12380520710251       -1.23033206123187       -0.55959188169314
C            3.83171172906067       -1.70917920920363       -0.52014140578144
H            2.26446506753924        1.02568514555678        0.69378511440092
H            4.52526692769717        1.89905836772354        0.63789446786353
O            6.70235096228532        0.47209519841162       -0.15867575642188
H            5.93415913047598       -1.85414977348550       -0.90171067209684
H            3.62541381976513       -2.72001937730157       -0.83708848277566
C            6.99485175694844        1.78510685255356        0.29632462692494
C            8.49970673001654        2.05987366829584        0.19387062946356
H            6.67622693172190        1.88123119751204        1.34324222958195
H            6.45110364141150        2.51362008863150       -0.31786097119284
C            8.77589391664596        3.57400211616627        0.56584984603743
H            8.84145561312745        1.91613674211981       -0.83306971139005
H            9.05841372806827        1.39836607662068        0.85167159330743
C           10.26658120801077        3.84947621412190        0.42246816866469
C            8.37009438905221        3.61062179039498        1.96303256201909
O            7.98559669512011        4.42262317246120       -0.21434702602470
C           10.74092152304865        5.08367980878317        0.25933961092383
C           12.19423463716899        5.31282929457018        0.07773070216531
C           12.66835503986614        6.71855680401341        0.02689581247714
C           14.00439043796822        6.92508962798858       -0.63004549596550
H           14.46025767726976        5.96704726601604       -0.86557242555102
H           14.66960564374678        7.48168905603214        0.02626966180677
H           13.88236731688236        7.49594249344990       -1.54875127942731
C           11.99404088566246        7.72867349199408        0.58133957142004
H           11.06028704746363        7.60721345120620        1.10076126004046
H           12.39738537110542        8.72780515774138        0.56133813014094
O           12.96867402649149        4.37418955846404       -0.04065823538086
H           10.94531101398002        3.00827770031589        0.45070823223621
H           10.07665861120434        5.93430653693147        0.23187728713501
H            8.34983294900284        4.46888517005205       -1.10699684564261
H            8.96728321331659        3.12892578931097        2.73593851307228
H            7.34760853750998        3.96617631434107        2.23679707913558
H           10.47574094834212        8.93142225360394        6.44429036588639
59
 energy: -87.346138776204 gnorm: 0.020513504756 xtb: 6.7.1 (edcfbbe)
C           -3.95920844163965       -0.40985678801328        0.35663543274085
C           -5.30542663170784       -0.72294712997727        0.39929738468639
C           -5.75664817476387       -1.90979134146753       -0.15792325188303
C           -3.04903529490268       -1.27419900056270       -0.25149619690884
C           -3.50679911028189       -2.47255552484961       -0.79682891073095
C           -4.85532324069913       -2.78367143309085       -0.74831631276590
H           -6.80737783660602       -2.15745127325063       -0.12282620761089
H           -5.20650064491133       -3.71473323050571       -1.16794837767546
H           -3.58946638173820        0.50670134684078        0.79427785726699
H           -6.00121962575039       -0.04503333949037        0.87156048689608
C           -1.61778347790888       -0.85952751207527       -0.23452754027791
H           -2.81661955320722       -3.17952687953399       -1.23292186381651
N           -0.81259703345366       -1.40586810085473       -1.16154779457830
C            0.58081688216201       -1.02557340586298       -1.27813121258390
C            1.38416685254398       -1.43175375773676       -0.01778195524790
H            0.65041495274551        0.06214224309425       -1.39637762443465
H            0.99598658168848       -1.52092267661819       -2.15479187828980
C            2.78350225932742       -0.91559618407920       -0.07565499505363
H            1.37245974311200       -2.51787815627410        0.07301677010511
H            0.86885795373494       -0.98570323371029        0.83372388204395
H           -1.21263341837779       -1.96223442524566       -1.89776345667311
O           -1.19530346920172       -0.05381974505067        0.59466952116564
C            3.06112109510130        0.39216297219348        0.32917516413287
C            4.34369347824239        0.89708724908584        0.30344840069335
C            5.40557596313903        0.09406183723681       -0.13334141309736
C            5.13475819068414       -1.21696260711481       -0.56315054699925
C            3.84619101027173       -1.70492259528394       -0.52729867283327
H            2.25536211963243        1.01606865583222        0.68765860953212
H            4.50447812917397        1.90787227572031        0.63897882827923
O            6.69520732536387        0.48496083363110       -0.13375514387709
H            5.95167131869386       -1.83474946335659       -0.90163786900575
H            3.65106061145118       -2.71943478082574       -0.84177570095822
C            6.99823419185300        1.79313345875584        0.31511952714080
C            8.50470742893646        2.05363747746735        0.18377204523797
H            6.70993964102102        1.89917942881469        1.37275667313978
H            6.45073993107174        2.53065133185603       -0.28337792111640
C            8.76285874345887        3.58495069085208        0.56584525715149
H            8.83334114807691        1.90871275002473       -0.84688200892399
H            9.06797138449942        1.39870965365486        0.84139342647824
C           10.25927897800698        3.85291978643689        0.43099691171144
C            8.34027609606099        3.57681329995488        1.94670513491137
O            7.97293148528092        4.42118292345019       -0.21033069907873
C           10.73698866133262        5.08236886580636        0.25306615464582
C           12.19666640216793        5.30626129772342        0.07998773545057
C           12.66250418695056        6.71410022714153        0.02499766846486
C           14.00145739329340        6.92225885309366       -0.63269323259789
H           14.45720208014150        5.96346594111120       -0.86254383049970
H           14.66350373357897        7.48356968762642        0.02220391366337
H           13.87815638219728        7.48902995096576       -1.55345928179960
C           11.98565720068096        7.72116100720012        0.58136520560369
H           11.05632821850980        7.60525207852891        1.11127214054788
H           12.39478388430924        8.71922571211234        0.57428583318734
O           12.96959429047288        4.36751269270991       -0.03340370140166
H           10.92986332308587        3.00584301365179        0.48056624848901
H           10.08489850653577        5.94154997361198        0.20840611058344
H            8.33728809008260        4.46976914696657       -1.10185869156849
H            8.95651572924083        3.11749853256389        2.70616752852965
H            7.35420285345826        3.95274384538411        2.21099772640156
H           10.47872790373510        8.92215354374968        6.42199871342717
59
 energy: -87.347827859731 gnorm: 0.030192323420 xtb: 6.7.1 (edcfbbe)
C           -3.96296838826144       -0.40824705760878        0.35240200596511
C           -5.30730786353112       -0.72480435531763        0.39269988428574
C           -5.75169953543262       -1.91412856304150       -0.16260646684497
C           -3.04688792316982       -1.26976431247391       -0.24763685893257
C           -3.49785776203946       -2.46981640740040       -0.79279799799721
C           -4.84556603473943       -2.78456322683105       -0.74809863197763
H           -6.80135015824448       -2.16558469187417       -0.13056335914667
H           -5.19277036297795       -3.71749693206162       -1.16718079705936
H           -3.59406452624241        0.50955796662450        0.78664914689402
H           -6.00561084070412       -0.04757514672339        0.86133779132208
C           -1.61864419166681       -0.83922710074568       -0.22849784297528
H           -2.80949210517582       -3.17914796632055       -1.22823611562268
N           -0.80932787998318       -1.38979536295226       -1.14967919626454
C            0.58536309325414       -1.02093308113891       -1.27492419152025
C            1.39499826757193       -1.44803644346279       -0.02482358583251
H            0.66116845111781        0.06657046109393       -1.37661312262944
H            0.98707959046548       -1.50508112396202       -2.16240449612933
C            2.79093345314443       -0.92303460836174       -0.08304269333699
H            1.38804411142444       -2.53526145334013        0.04762457206159
H            0.88310523550640       -1.02220936793506        0.83863669040748
H           -1.21053364423532       -1.98458888919112       -1.86006815375180
O           -1.20948947995056       -0.01573380548208        0.58994139940303
C            3.05409599791298        0.38636537015508        0.31979185154899
C            4.33180989391637        0.90349473583354        0.29898606908527
C            5.40239254643168        0.10797687034842       -0.12788298634330
C            5.14309844251353       -1.20165821259838       -0.56412532316688
C            3.85962678178120       -1.70067376977729       -0.53474124440076
H            2.24148242891049        1.00262450599478        0.67563229130105
H            4.48260812711071        1.91448825196242        0.63906344567991
O            6.69339140743079        0.49517617380613       -0.10381125145116
H            5.96816039686916       -1.80973367995238       -0.89992780120171
H            3.67721845550377       -2.71677996938619       -0.85167519464503
C            7.00325884903487        1.79599756376654        0.33760062636999
C            8.50391612857620        2.05120517393133        0.16416642728651
H            6.75601717911648        1.90908665971177        1.40939924668450
H            6.43830445772823        2.54116561678889       -0.23341776612016
C            8.75234687727661        3.59149922025734        0.56697243604094
H            8.81316672823356        1.90813255337015       -0.87215411170336
H            9.08259761583841        1.40030587312383        0.81100210868724
C           10.25182708307556        3.85168303448716        0.43541932185923
C            8.32553699566243        3.54937028251709        1.94035248412146
O            7.97049393898260        4.42830078709845       -0.20461659594468
C           10.73172902237462        5.07450162825027        0.23996998158620
C           12.19551076750151        5.29688883279263        0.08076131825501
C           12.65967232071087        6.70444355176887        0.03074889881629
C           13.99436397581678        6.91900794600572       -0.63269522300588
H           14.45272615735933        5.96049063296083       -0.85879660303716
H           14.65611807162715        7.48526024433445        0.01805656874182
H           13.86653151046456        7.47968080930662       -1.55666815572873
C           11.98374241054055        7.70696287955920        0.59316089173196
H           11.05256973630544        7.59599994887009        1.12013186884355
H           12.38707610320876        8.70660166310144        0.58041821737911
O           12.96675396474963        4.35932422626690       -0.02301495518235
H           10.91510640472754        3.00226188141888        0.51687557658134
H           10.09076266609044        5.93936067883580        0.16887208708951
H            8.32611325381745        4.48078874219656       -1.10165484742390
H            8.92189662834911        3.07813153861574        2.68199217144383
H            7.37525501952565        4.02419095825641        2.21194360399562
H           10.48360014875250        8.90697826454288        6.38574658592426
59
 energy: -87.349553965635 gnorm: 0.022388904327 xtb: 6.7.1 (edcfbbe)
C           -3.96883472137806       -0.40401597508940        0.34883187781178
C           -5.31103126497254       -0.72625091704772        0.38512518159687
C           -5.74603882815922       -1.91907476647932       -0.16827323407595
C           -3.04439546093986       -1.26102159353842       -0.24266542648187
C           -3.48693731228365       -2.46381073504087       -0.78673514250534
C           -4.83291494953697       -2.78497185103680       -0.74698786823889
H           -6.79420754944633       -2.17609124145837       -0.14099733548538
H           -5.17371148238215       -3.72010678014206       -1.16626635286965
H           -3.60279457291189        0.51603358022888        0.77947445195040
H           -6.01391618553121       -0.05014883808107        0.84758049068342
C           -1.61913734399500       -0.81877395972561       -0.22416444176084
H           -2.79818898722147       -3.17431440491903       -1.21900045106018
N           -0.80475950198339       -1.37649460603268       -1.14070350346188
C            0.59019763366808       -1.01601264702605       -1.27119837740881
C            1.40598279204809       -1.46786051622642       -0.03697017830250
H            0.66866536578160        0.07205520663918       -1.35377233201824
H            0.98210627858521       -1.47980880501977       -2.17368627545626
C            2.79883495793788       -0.93138770116249       -0.09101107590834
H            1.40726372743259       -2.55700005034315        0.01476853301954
H            0.89649644065619       -1.07097941135858        0.84345494207377
H           -1.20331902690687       -2.01089815069382       -1.82235408401269
O           -1.22085764916459        0.02118332680628        0.58096474715798
C            3.04625807545327        0.37978554676674        0.31032955625836
C            4.31960882304898        0.90813401651011        0.29894252973866
C            5.39787431932111        0.11931079222207       -0.11579201366809
C            5.15061102909896       -1.18708207349951       -0.56063071192747
C            3.87227085191663       -1.69781330816294       -0.54229718408479
H            2.22513178725345        0.98775960661128        0.65988638590989
H            4.46285421560519        1.91925639395064        0.64217583030556
O            6.69554469999325        0.50233099147758       -0.06792991367947
H            5.98496638879650       -1.78297384909699       -0.89476005915745
H            3.70276782995603       -2.71340268780267       -0.86657765745174
C            7.01325357594813        1.79520208157576        0.36084199251733
C            8.50290148830213        2.05216740125078        0.13492504856539
H            6.81733503093615        1.91800016346873        1.44946163376454
H            6.41990832486559        2.54586223824122       -0.17496595719604
C            8.73939106576129        3.59266525157896        0.56652165175648
H            8.78619669557905        1.91545182788024       -0.90937515834761
H            9.10599301776045        1.40411776538352        0.76370758042013
C           10.24169065830457        3.85084537462294        0.44841659673851
C            8.29748020778937        3.54737578344452        1.93356166584668
O            7.96670664435125        4.43582699883725       -0.20295497628054
C           10.72302103063894        5.06567311525420        0.22371632650322
C           12.18965249028062        5.28632860462366        0.08051868616589
C           12.65475905407825        6.69301125479896        0.03607994398979
C           13.98372465671539        6.91384006969085       -0.63111636333000
H           14.44906345224339        5.95672711108248       -0.85256295955069
H           14.64483889999007        7.48770688948047        0.01395303604315
H           13.85089415021126        7.46595986372974       -1.55975903086865
C           11.98008584249789        7.69108212472734        0.60493110844142
H           11.05055518868337        7.57946254923180        1.13360138415509
H           12.37974861987977        8.69158226164114        0.59200781134464
O           12.96069585717530        4.34963070391339       -0.00743143487077
H           10.90010016429778        3.00284641829686        0.56957256938661
H           10.09053191314502        5.93290548885271        0.11604224048626
H            8.31379679385329        4.49544601626753       -1.10605910559170
H            8.90511424030086        3.08512257527320        2.67980885045846
H            7.39387823407396        4.06350875396550        2.21604822542567
H           10.49029232255411        8.88609672066841        6.33574772654756
59
 energy: -87.351775722082 gnorm: 0.028202528456 xtb: 6.7.1 (edcfbbe)
C           -3.97545846288972       -0.39707851887452        0.34575113005431
C           -5.31571352120403       -0.72713294141291        0.37655623551143
C           -5.73989960524718       -1.92468732838901       -0.17482681989271
C           -3.04101353502770       -1.24886894746848       -0.23793127619742
C           -3.47412531691247       -2.45622085163682       -0.77878272598292
C           -4.81786794317251       -2.78619698496037       -0.74470017125595
H           -6.78636475390774       -2.18880984680007       -0.15319435578507
H           -5.14992408621431       -3.72446623017799       -1.16368858063929
H           -3.61514805960090        0.52692522302521        0.77276363309182
H           -6.02513447024558       -0.05275543067923        0.83114633672140
C           -1.61870465567244       -0.79904029623291       -0.22336149140376
H           -2.78230061312064       -3.16680759079526       -1.20503857481158
N           -0.80064299108823       -1.36571330290535       -1.13546016732222
C            0.59335163459796       -1.00862683092879       -1.26547156298511
C            1.41749558914160       -1.49255997585123       -0.05453648287005
H            0.67094309909059        0.08164935941600       -1.32179241122617
H            0.97830314963422       -1.44222321697394       -2.18776126944986
C            2.80692093153718       -0.94122250426662       -0.09928972242339
H            1.43080994389738       -2.58409261969285       -0.03024131198128
H            0.90994811346814       -1.13220059358786        0.84609046947784
H           -1.19102595789607       -2.03487205110249       -1.78567066962256
O           -1.22630690503424        0.05513461315568        0.56620858478273
C            3.03739469026348        0.37216117315138        0.30350598807891
C            4.30693197307016        0.91080596672673        0.30891658846195