59
 energy: -87.316092926316 gnorm: 0.104594207256 xtb: 6.7.1 (edcfbbe)
C           -3.97135884225733       -0.40783111867457        0.37073282943324
C           -5.31199307096888       -0.72175998751923        0.40953560703982
C           -5.75996405568129       -1.90214911677068       -0.14762345539694
C           -3.06065243275374       -1.26572047682285       -0.22880137466088
C           -3.52217634937555       -2.45588304017504       -0.77801917814288
C           -4.86331839098348       -2.76893744315776       -0.73894587805583
H           -6.80832023495828       -2.14943125197558       -0.11635399614190
H           -5.21226461994380       -3.69435965766273       -1.16693967055262
H           -3.60456792540736        0.50296033306427        0.81272502103061
H           -6.00962513862088       -0.04723675815583        0.87807056415763
C           -1.62481575934923       -0.90616360432800       -0.23482489377989
H           -2.82059909944736       -3.14235125414951       -1.21797249166530
N           -0.80355990877577       -1.45692604289067       -1.20012144576007
C            0.58749148134506       -1.05180975743102       -1.29221637043787
C            1.36073012004642       -1.39808630099961       -0.02856798898655
H            0.61128953161055        0.03072667793380       -1.45932735834326
H            1.06290144542603       -1.51000487611027       -2.16700939713040
C            2.77350783176002       -0.90172538461651       -0.04929212730250
H            1.34732862277838       -2.48189402753766        0.12787564477193
H            0.83656835815447       -0.97489843764654        0.83606214404733
H           -1.19369651830284       -1.95785315048988       -2.00287276701621
O           -1.18786698472511       -0.12883467774240        0.59974102663767
C            3.06970350559511        0.39278547250024        0.35029590197248
C            4.35990772224794        0.86819079174969        0.31376451968135
C            5.40656467888964        0.05875793394850       -0.13244261927176
C            5.09655666758026       -1.23811272730464       -0.54534162202844
C            3.80499073891216       -1.70711241351530       -0.50718038800463
H            2.26957137445650        1.02753252102572        0.69112042937473
H            4.55893778592294        1.87570165078079        0.62977572048039
O            6.74808831078858        0.45129649104965       -0.19825961018548
H            5.89818001087204       -1.86387843962435       -0.89525020228142
H            3.58388376311152       -2.70852187875347       -0.83427982002880
C            7.00955617615311        1.76908382231674        0.27045295754034
C            8.48737656088001        2.10587501491909        0.20990185833553
H            6.63715013608122        1.84268708055694        1.29758348921714
H            6.43774490427955        2.46924319033704       -0.34903797213136
C            8.79678067808611        3.56801315148163        0.61270886321158
H            8.84642890937432        1.93647113612278       -0.80909358679637
H            9.05174848657809        1.41679802504611        0.84456786650440
C           10.26718836678034        3.85180537512635        0.40779430584444
C            8.43583563962464        3.81337906308579        2.05446689073896
O            8.02604642045569        4.43688261204171       -0.21604401492901
C           10.74037516125481        5.07784547140031        0.26138475600781
C           12.17101824089157        5.32722010385671        0.08244192436212
C           12.68196905325736        6.71809004725375        0.03674069909654
C           13.99316141561622        6.93519256970221       -0.61969258905877
H           14.45734625692606        5.97862084385563       -0.86339275533692
H           14.67419262859461        7.47991811347915        0.03448932598556
H           13.87782209926234        7.50084984843970       -1.54440068484374
C           12.01752047811221        7.73391790808680        0.57472101880146
H           11.08672072077331        7.59417229009235        1.08459585093178
H           12.40931013969073        8.73009331352559        0.53474863853530
O           12.94096598763484        4.39673909185444       -0.04070396126539
H           10.96039896483786        3.02961554433571        0.42382733521020
H           10.05575661978315        5.90530128406495        0.25119228315242
H            8.37241556393673        4.47131009083676       -1.13583496498833
H            8.92885371035960        3.14189432531310        2.72653038025772
H            7.37979937047465        3.80282539316969        2.22206856915900
H           10.47309469231229        8.93968524172354        6.46392676302794
59
 energy: -87.336563620186 gnorm: 0.056687925915 xtb: 6.7.1 (edcfbbe)
C           -3.96411810991012       -0.40832773704676        0.36918746274770
C           -5.30928192367031       -0.72092540513477        0.40922070067955
C           -5.76138265104647       -1.90413362083981       -0.15005949568184
C           -3.05549122309898       -1.26987190979280       -0.24138486766482
C           -3.51805923492841       -2.46415410874832       -0.78898218908449
C           -4.86321943953673       -2.77623311485835       -0.74300646226578
H           -6.81151631678400       -2.15042293800424       -0.11651186865784
H           -5.21415797277577       -3.70308680491343       -1.16861211116802
H           -3.59698614513123        0.50666258279973        0.80907075862079
H           -6.00615111809658       -0.04382015479478        0.87887126584055
C           -1.62032805590157       -0.89193578036128       -0.24115200236514
H           -2.81956911149437       -3.15894757047080       -1.22529565232801
N           -0.80851681256183       -1.44364266961406       -1.18955243678520
C            0.58191382292662       -1.04196078342112       -1.28737205461246
C            1.36438598606737       -1.40724995230372       -0.01990006723238
H            0.62303036317727        0.04382802836514       -1.44031472967244
H            1.03743383938248       -1.52248061735186       -2.15765533466814
C            2.77256961054608       -0.90444296518143       -0.05961159583212
H            1.35225252338377       -2.49264304110680        0.11260777918467
H            0.84177345480236       -0.96295775724132        0.83304125870673
H           -1.20084031144254       -1.95255850949677       -1.97131130319163
O           -1.17910822416028       -0.11547592478739        0.59838538693921
C            3.06837627670536        0.39665531468301        0.34508828925854
C            4.35841582792698        0.87843046353632        0.31350951027206
C            5.40636429335422        0.06611257925934       -0.13362958840106
C            5.10969947047668       -1.23846555644643       -0.55221650895814
C            3.81602704574428       -1.71035579914933       -0.51412218318077
H            2.26904449433100        1.03075773806792        0.69456312809588
H            4.54609605405145        1.88798746702843        0.63449364209789
O            6.72417372628872        0.46044335858702       -0.18206874894444
H            5.91483908109555       -1.86462044268684       -0.89914847116984
H            3.60055971372910       -2.71630764069564       -0.83582691071162
C            6.99954755194913        1.77709399705193        0.28045732210154
C            8.49353839610948        2.08136937226146        0.20333813460597
H            6.64888877654195        1.85889711747943        1.31609267234453
H            6.44437008462242        2.49065162306481       -0.34130392655386
C            8.78965801973214        3.56780338957015        0.57868728236496
H            8.84745387327090        1.93332126154055       -0.81952657749291
H            9.05550915426179        1.40676564009133        0.85154012602424
C           10.27076529711294        3.84897947424018        0.41298262122441
C            8.39907202962766        3.69420337117676        2.00461902744926
O            8.00275624636034        4.43005145948693       -0.22095925966752
C           10.74332061287510        5.08272224075042        0.26253934324809
C           12.18585705567408        5.32068881437193        0.08234559930008
C           12.67331444217042        6.72155845951404        0.02740338902339
C           14.00067994276184        6.92886533610103       -0.62586458886385
H           14.46217663948413        5.97199936954869       -0.86556378912764
H           14.67164910446491        7.48113330691953        0.03014726337707
H           13.88203775771538        7.49836634125062       -1.54644314157296
C           12.00141753678766        7.73619443551492        0.57162018496128
H           11.07379763136600        7.60230669024835        1.09542171932258
H           12.40583151544340        8.73244458538620        0.55289933956101
O           12.96071920426611        4.38491971497323       -0.04278726842415
H           10.95882032675532        3.01736158544128        0.42887360613964
H           10.06483078212879        5.92065063015621        0.24490226972789
H            8.36095379480940        4.47451840080574       -1.12393266596589
H            8.96196382051899        3.14210082113175        2.75392935860640
H            7.34692160765835        3.89207075443525        2.24446036340614
H           10.47391986203944        8.93710507963094        6.45781699503627
59
 energy: -87.343606645245 gnorm: 0.037569715515 xtb: 6.7.1 (edcfbbe)
C           -3.95917267008942       -0.40948042835903        0.36161041998101
C           -5.30603107969406       -0.72136348732292        0.40457782105886
C           -5.75998558009645       -1.90647197555053       -0.15394908392292
C           -3.05145045918107       -1.27423428557277       -0.25079127585466
C           -3.51316337919259       -2.47095110578707       -0.79630635044142
C           -4.86105849382495       -2.78117422764401       -0.74679753902264
H           -6.81098812933396       -2.15243924704795       -0.11841463325418
H           -5.21344709240206       -3.71031862831581       -1.16849396386188
H           -3.59004328517567        0.50604666694577        0.80187916539602
H           -6.00146256014481       -0.04347796856394        0.87732450949441
C           -1.61752154849307       -0.87735197808707       -0.23914910863485
H           -2.81985961738506       -3.17382948552772       -1.23212545893184
N           -0.81287750892327       -1.42291197618236       -1.17459970754088
C            0.57895766411369       -1.03157903986993       -1.28246992507222
C            1.37395220205530       -1.41925110665838       -0.01610513598305
H            0.63805465536481        0.05579497408763       -1.41589847141515
H            1.01116461568270       -1.52641776189706       -2.15321644371571
C            2.77692634249341       -0.91006817072722       -0.06794321044380
H            1.36077025494078       -2.50466422688905        0.09251456174699
H            0.85454996074839       -0.96627455854460        0.83098617008191
H           -1.20978291853303       -1.95194398452494       -1.93175889227216
O           -1.18391594489049       -0.08634959496068        0.59630395145830
C            3.06568884009788        0.39551978033092        0.33734436334235
C            4.35247524793595        0.88880417328669        0.30823420172449
C            5.40617469536002        0.07946696430251       -0.13567333541204
C            5.12380603350064       -1.23033237957093       -0.55959226879612
C            3.83171305327699       -1.70917930287389       -0.52014131008883
H            2.26446362034884        1.02568478470427        0.69378435632445
H            4.52526634566751        1.89905913369503        0.63789512885021
O            6.70234469327610        0.47209506017179       -0.15867222231886
H            5.93416073269706       -1.85414915466546       -0.90171089494397
H            3.62541432736582       -2.72001951356609       -0.83708813167347
C            6.99485113532107        1.78510641966059        0.29632334738920
C            8.49970748387470        2.05986913387853        0.19386548124073
H            6.67623192177280        1.88123602849476        1.34324285259492
H            6.45110471216706        2.51362203410909       -0.31786141527297
C            8.77589228879085        3.57399666765965        0.56584552336971
H            8.84145509981422        1.91613444316852       -0.83307469690923
H            9.05841483224862        1.39836466222720        0.85166867069257
C           10.26658062055973        3.84947482169034        0.42246878956129
C            8.37009427937811        3.61061415122091        1.96303117243588
O            7.98559374979926        4.42261982468045       -0.21434769395914
C           10.74092064349829        5.08367892446026        0.25934003596519
C           12.19423465546334        5.31282828319186        0.07772996206125
C           12.66835427327867        6.71855630057548        0.02689620350005
C           14.00439074593602        6.92508917757239       -0.63004573123617
H           14.46025697936948        5.96704660709896       -0.86557226148983
H           14.66960530812061        7.48168892541159        0.02626961303452
H           13.88236706826432        7.49594241376497       -1.54875117093114
C           11.99404069240955        7.72867250916104        0.58134165695969
H           11.06028541510182        7.60721450510461        1.10076159423027
H           12.39738418027373        8.72780483084096        0.56133774067034
O           12.96867452084678        4.37418837361794       -0.04065833751249
H           10.94531081751991        3.00827626228696        0.45070888195279
H           10.07665897239065        5.93430680791619        0.23187723177395
H            8.34983159845457        4.46888423151716       -1.10699565539356
H            8.96728716718354        3.12892661559619        2.73594633318144
H            7.34760686506315        3.96619687120547        2.23680426288214
H           10.47574095549133        8.93142222509395        6.44429032337236
59
 energy: -87.346138450069 gnorm: 0.020516083840 xtb: 6.7.1 (edcfbbe)
C           -3.95920745870431       -0.40985690278794        0.35663623695079
C           -5.30542594260273       -0.72294691355664        0.39929836557330
C           -5.75664825691989       -1.90979095411107       -0.15792271063340
C           -3.04903475839439       -1.27419936262108       -0.25149664465238
C           -3.50679934139751       -2.47255584492853       -0.79682940771284
C           -4.85532362804094       -2.78367145545601       -0.74831631162877
H           -6.80737808153795       -2.15745047817657       -0.12282551184925
H           -5.20650148680095       -3.71473299245185       -1.16794860448859
H           -3.58946536222729        0.50670123885937        0.79427901921219
H           -6.00121879359441       -0.04503297310209        0.87156164086940
C           -1.61778314571892       -0.85952874796485       -0.23452854568941
H           -2.81661982591421       -3.17952731951536       -1.23292236638030
N           -0.81259704130521       -1.40586803967323       -1.16154961822815
C            0.58081588110494       -1.02557262739109       -1.27813230601203
C            1.38416632069134       -1.43175257737686       -0.01778120217899
H            0.65041450312760        0.06214321012110       -1.39637836198868
H            0.99598705499519       -1.52092301564920       -2.15479162559660
C            2.78350072578605       -0.91559555124817       -0.07565494946845
H            1.37245832304160       -2.51787697723434        0.07301758926394
H            0.86885598355040       -0.98569943320070        0.83372245639534
H           -1.21263225509877       -1.96223721733072       -1.89776312977068
O           -1.19530099704306       -0.05382254739819        0.59466903948283
C            3.06112115513337        0.39216427806378        0.32917525550100
C            4.34369354882784        0.89708717250524        0.30344898568067
C            5.40557752363130        0.09406144335611       -0.13334103730490
C            5.13475750479534       -1.21696402240716       -0.56315001588772
C            3.84619012925555       -1.70492275362603       -0.52729828253393
H            2.25536194272894        1.01606987314752        0.68765866006219
H            4.50448026562306        1.90787198952993        0.63897940754302
O            6.69520559379984        0.48495977937481       -0.13375454219623
H            5.95167061916109       -1.83475118320862       -0.90163724510301
H            3.65105806992529       -2.71943489600449       -0.84177476566788
C            6.99823485056488        1.79313371948685        0.31511655702299
C            8.50470889418134        2.05363682331682        0.18377047742206
H            6.70993977396199        1.89918281462624        1.37275328917205
H            6.45074224873313        2.53065083903729       -0.28338379032360
C            8.76285921951552        3.58494581076035        0.56584373207777
H            8.83334292407037        1.90871271481181       -0.84688339809984
H            9.06797169937896        1.39870850949374        0.84139250543632
C           10.25927893687102        3.85291948836129        0.43099824201675
C            8.34027693616282        3.57681852723036        1.94670706484523
O            7.97292925602876        4.42118019016216       -0.21033115977271
C           10.73698832070081        5.08236947148764        0.25306847238337
C           12.19666564510589        5.30626179882973        0.07998786592109
C           12.66250333487779        6.71410101330439        0.02499679400358
C           14.00145753030749        6.92225850920053       -0.63269340843861
H           14.45720205097379        5.96346553362327       -0.86254398028495
H           14.66350348860746        7.48356932694457        0.02220411070135
H           13.87815689789605        7.48903006319530       -1.55345917597636
C           11.98565640802080        7.72116238297279        0.58136403139569
H           11.05632781453278        7.60525312106159        1.11127186028802
H           12.39478433588037        8.71922685761054        0.57428610386725
O           12.96959432446678        4.36751293796874       -0.03340440437244
H           10.92986486973153        3.00584334187759        0.48056400965372
H           10.08489702295137        5.94155013518800        0.20841047061542
H            8.33728804563189        4.46976790651382       -1.10185753207267
H            8.95652076039659        3.11750587037775        2.70617281762502
H            7.35419815036180        3.95273325417637        2.21099719690328
H           10.47872749016765        8.92215483986251        6.42200177644763
59
 energy: -87.347827863680 gnorm: 0.030189621513 xtb: 6.7.1 (edcfbbe)
C           -3.96296744037199       -0.40824753427130        0.35240270869937
C           -5.30730698164380       -0.72480446424276        0.39270084748292
C           -5.75169936888550       -1.91412834412516       -0.16260589538004
C           -3.04688762961622       -1.26976490922407       -0.24763692568760
C           -3.49785794725026       -2.46981694247489       -0.79279835645061
C           -4.84556640521683       -2.78456333273342       -0.74809867028251
H           -6.80135009798117       -2.16558401371371       -0.13056244815646
H           -5.19277125425005       -3.71749689290477       -1.16718079125864
H           -3.59406332058717        0.50955748255757        0.78664975344865
H           -6.00560952253244       -0.04757510746400        0.86133919740980
C           -1.61864427163234       -0.83922683478730       -0.22849829301559
H           -2.80949261429090       -3.17914868224436       -1.22823683135622
N           -0.80932785724138       -1.38979490320167       -1.14968011831295
C            0.58536275835939       -1.02093258626772       -1.27492463213920
C            1.39499812687178       -1.44803495129299       -0.02482311097905
H            0.66116822957489        0.06657090600258       -1.37661375716349
H            0.98707955630470       -1.50508165028921       -2.16240427162607
C            2.79093308528025       -0.92303352899552       -0.08304307584288
H            1.38804340942164       -2.53525997224052        0.04762541782931
H            0.88310514783492       -1.02220575714004        0.83863606033144
H           -1.21053252367165       -1.98459243164811       -1.86006664274851
O           -1.20948904026120       -0.01573385043868        0.58994121778239
C            3.05409592456008        0.38636666291745        0.31979146672544
C            4.33180968147939        0.90349522476892        0.29898588234957
C            5.40239293251772        0.10797700139673       -0.12788257288871
C            5.14309816597795       -1.20165847887509       -0.56412489243251
C            3.85962647813793       -1.70067338613792       -0.53474125150888
H            2.24148248875273        1.00262597015553        0.67563210239595
H            4.48260874553723        1.91448873523838        0.63906342687381
O            6.69339208655965        0.49517603884836       -0.10380938603140
H            5.96816015969714       -1.80973462223717       -0.89992670408368
H            3.67721781202474       -2.71678003477893       -0.85167405207329
C            7.00326011721226        1.79599910735196        0.33759888214695
C            8.50391801864723        2.05120610974360        0.16416594123682
H            6.75601726073809        1.90909109089988        1.40939661666837
H            6.43830701923643        2.54116511666350       -0.23342299889199
C            8.75234740188501        3.59149727135984        0.56697373937867
H            8.81316900631705        1.90813173519510       -0.87215453653154
H            9.08259736389857        1.40030477473179        0.81100158731304
C           10.25182669117353        3.85168336160539        0.43541977640787
C            8.32553835698472        3.54937454406892        1.94035552801431
O            7.97049266235614        4.42829916089377       -0.20461575069041
C           10.73172872661400        5.07450241322905        0.23997235809500
C           12.19551017525651        5.29688949476836        0.08076337712928
C           12.65967097495147        6.70444448489950        0.03074764161954
C           13.99436349106890        6.91900764735335       -0.63269569582836
H           14.45272552329652        5.96049008056509       -0.85879654816682
H           14.65611738015685        7.48525997228132        0.01805626763971
H           13.86653179065804        7.47968035786732       -1.55666876117378
C           11.98374062350381        7.70696461905980        0.59315804328057
H           11.05256957795192        7.59600144493041        1.12013208856348
H           12.38707701385337        8.70660252626305        0.58041940989448
O           12.96675356602982        4.35932497162350       -0.02301562720135
H           10.91510679874404        3.00226227594197        0.51687352735163
H           10.09076179751212        5.93936136933007        0.16887722567340
H            8.32611329859530        4.48078705207882       -1.10165331474334
H            8.92189443853161        3.07812995369505        2.68198833800517
H            7.37525276654035        4.02417439301730        2.21193714490373
H           10.48359964478475        8.90697986044169        6.38575033801155
59
 energy: -87.349553946200 gnorm: 0.022388556847 xtb: 6.7.1 (edcfbbe)
C           -3.96883385251912       -0.40401662615474        0.34883284594835
C           -5.31103045226186       -0.72625085756976        0.38512662173822
C           -5.74603910524921       -1.91907396556710       -0.16827213577338
C           -3.04439576772243       -1.26102258836594       -0.24266526767914
C           -3.48693862583912       -2.46381116890653       -0.78673528010361
C           -4.83291633758563       -2.78497139956840       -0.74698772191567
H           -6.79420792604409       -2.17608967139075       -0.14099571353090
H           -5.17371365119336       -3.72010588445099       -1.16626638941242
H           -3.60279334595018        0.51603246429660        0.77947584427799
H           -6.01391467633089       -0.05014879114349        0.84758288815900
C           -1.61913738989699       -0.81877648170852       -0.22416519875880
H           -2.79819038307623       -3.17431428488885       -1.21900135817102
N           -0.80475967412473       -1.37649670885698       -1.14070580466146
C            0.59019754176230       -1.01601323375493       -1.27119935173583
C            1.40598118367928       -1.46785679647818       -0.03696974794210
H            0.66866299602072        0.07205435895128       -1.35377623704846
H            0.98210855347774       -1.47980989846622       -2.17368614593277
C            2.79883440696480       -0.93138569462982       -0.09100991181310
H            1.40726145865470       -2.55699604670916        0.01477270446126
H            0.89649507125759       -1.07097326144014        0.84345420549836
H           -1.20331793697565       -2.01089855583337       -1.82235810509639
O           -1.22085695044963        0.02117986124820        0.58096454274763
C            3.04625903489541        0.37978695341667        0.31033057634405
C            4.31961057331772        0.90813319125198        0.29894277776995
C            5.39787393119744        0.11930814122138       -0.11579194426227
C            5.15060935974773       -1.18708423190705       -0.56062959240199
C            3.87226850192929       -1.69781355855961       -0.54229560637536
H            2.22513401606142        0.98776283403762        0.65988684486410
H            4.46285754253687        1.91925572073433        0.64217488597164
O            6.69554729115510        0.50232831123667       -0.06793287583869
H            5.98496323935328       -1.78297800574850       -0.89475891963538
H            3.70276388863385       -2.71340271125615       -0.86657571085521
C            7.01325358026787        1.79520180497876        0.36083751678503
C            8.50290209633635        2.05216825256191        0.13492637501714
H            6.81732886127676        1.91800048890299        1.44945442969567
H            6.41990993913191        2.54585818062314       -0.17497627227822
C            8.73939336970275        3.59266253245042        0.56652300643586
H            8.78619996770928        1.91545019366522       -0.90937317757383
H            9.10599031402067        1.40411532187909        0.76370883459056
C           10.24169150566988        3.85084449098159        0.44841404631688
C            8.29748751602644        3.54738127352849        1.93356458393714
O            7.96670878926912        4.43582508272682       -0.20295514818336
C           10.72302106495141        5.06567343411128        0.22371954755935
C           12.18965125484406        5.28633002436939        0.08051991360010
C           12.65475900211944        6.69301223250872        0.03608038990330
C           13.98372441935782        6.91384031872210       -0.63111576394782
H           14.44906231044553        5.95672712340542       -0.85256321969506
H           14.64483952188789        7.48770577917529        0.01395398626121
H           13.85089453381052        7.46596086747639       -1.55975808292569
C           11.98008587607829        7.69108420671271        0.60492953795610
H           11.05055523887432        7.57946440976737        1.13359956181921
H           12.37974871602190        8.69158404300557        0.59200488211921
O           12.96069438553528        4.34963235940477       -0.00743321290738
H           10.90010268389776        3.00284634917341        0.56956491581822
H           10.09052971546032        5.93290446606417        0.11605174229593
H            8.31379986756778        4.49544268262007       -1.10605921989999
H            8.90511442098031        3.08512256654925        2.67981093417347
H            7.39387726840416        4.06351007663342        2.21604856088910
H           10.49029126488317        8.88610002497385        6.33575561341248
59
 energy: -87.351775682522 gnorm: 0.028204165468 xtb: 6.7.1 (edcfbbe)
C           -3.97545810625396       -0.39707881564932        0.34575202349194
C           -5.31571317852652       -0.72713290665664        0.37655748164780
C           -5.73989982256483       -1.92468671894964       -0.17482575616604
C           -3.04101388527641       -1.24886935003609       -0.23793086558637
C           -3.47412638611555       -2.45622072890462       -0.77878236384007
C           -4.81786889116212       -2.78619643306781       -0.74469969124436
H           -6.78636500821061       -2.18880875737532       -0.15319318799490
H           -5.14992535381971       -3.72446526378949       -1.16368849477156
H           -3.61514762798630        0.52692453140378        0.77276497426009
H           -6.02513378826686       -0.05275549004750        0.83114811926245
C           -1.61870442066750       -0.79904308418313       -0.22336251175794
H           -2.78230137419340       -3.16680660579771       -1.20503864749433
N           -0.80064309929623       -1.36571602743824       -1.13546264545858
C            0.59335201295499       -1.00862704090663       -1.26547220637482
C            1.41749376483317       -1.49255691495134       -0.05453727801607
H            0.67094001199247        0.08164921356947       -1.32179573720324
H            0.97830627778319       -1.44222196720066       -2.18776191773275
C            2.80692106811930       -0.94122080444744       -0.09928816882907
H            1.43080831718759       -2.58408944799273       -0.03023836541327
H            0.90994674384251       -1.13219749776993        0.84608998079002
H           -1.19102451603001       -2.03487128761914       -1.78567581980125
O           -1.22630625812914        0.05513161465586        0.56620706169999
C            3.03739608059810        0.37216182541493        0.30350753933910
C            4.30693487568065        0.91080456361838        0.30891817066033